 vasp.5.4.4.18Apr17-6-g9f103f2a35 (build Dec 09 2018 21:25:21) complex          
  
 executed on IFC18.0.1.163_CrayMP date 2019.03.19  13:22:47
 running on    8 total cores
 distrk:  each k-point on    8 cores,    1 groups
 distr:  one band on NCORES_PER_BAND=   1 cores,    8 groups


--------------------------------------------------------------------------------------------------------


 INCAR:
 POTCAR:   PAW_PBE Si 05Jan2001                   

 ----------------------------------------------------------------------------- 
|                                                                             |
|           W    W    AA    RRRRR   N    N  II  N    N   GGGG   !!!           |
|           W    W   A  A   R    R  NN   N  II  NN   N  G    G  !!!           |
|           W    W  A    A  R    R  N N  N  II  N N  N  G       !!!           |
|           W WW W  AAAAAA  RRRRR   N  N N  II  N  N N  G  GGG   !            |
|           WW  WW  A    A  R   R   N   NN  II  N   NN  G    G                |
|           W    W  A    A  R    R  N    N  II  N    N   GGGG   !!!           |
|                                                                             |
|      For optimal performance we recommend to set                            |
|        NCORE= 4 - approx SQRT( number of cores)                             |
|      NCORE specifies how many cores store one orbital (NPAR=cpu/NCORE).     |
|      This setting can  greatly improve the performance of VASP for DFT.     |
|      The default,   NCORE=1            might be grossly inefficient         |
|      on modern multi-core architectures or massively parallel machines.     |
|      Do your own testing !!!!                                               |
|      Unfortunately you need to use the default for GW and RPA calculations. |
|      (for HF NCORE is supported but not extensively tested yet)             |
|                                                                             |
 ----------------------------------------------------------------------------- 

 POTCAR:   PAW_PBE Si 05Jan2001                   
   VRHFIN =Si: s2p2                                                             
   LEXCH  = PE                                                                  
   EATOM  =   103.0669 eV,    7.5752 Ry                                         
                                                                                
   TITEL  = PAW_PBE Si 05Jan2001                                                
   LULTRA =        F    use ultrasoft PP ?                                      
   IUNSCR =        1    unscreen: 0-lin 1-nonlin 2-no                           
   RPACOR =    1.500    partial core radius                                     
   POMASS =   28.085; ZVAL   =    4.000    mass and valenz                      
   RCORE  =    1.900    outmost cutoff radius                                   
   RWIGS  =    2.480; RWIGS  =    1.312    wigner-seitz radius (au A)           
   ENMAX  =  245.345; ENMIN  =  184.009 eV                                      
   ICORE  =        2    local potential                                         
   LCOR   =        T    correct aug charges                                     
   LPAW   =        T    paw PP                                                  
   EAUG   =  322.069                                                            
   DEXC   =    -.007                                                            
   RMAX   =    2.944    core radius for proj-oper                               
   RAUG   =    1.300    factor for augmentation sphere                          
   RDEP   =    1.993    radius for radial grids                                 
   QCUT   =   -4.246; QGAM   =    8.493    optimization parameters              
                                                                                
   Description                                                                  
     l     E      TYP  RCUT    TYP  RCUT                                        
     0   .000     23  1.900                                                     
     0   .000     23  1.900                                                     
     1   .000     23  1.900                                                     
     1   .000     23  1.900                                                     
     2   .000      7  1.900                                                     
  local pseudopotential read in
  partial core-charges read in
  atomic valenz-charges read in
  non local Contribution for L=           0  read in
    real space projection operators read in
  non local Contribution for L=           0  read in
    real space projection operators read in
  non local Contribution for L=           1  read in
    real space projection operators read in
  non local Contribution for L=           1  read in
    real space projection operators read in
    PAW grid and wavefunctions read in
 
   number of l-projection  operators is LMAX  =           4
   number of lm-projection operators is LMMAX =           8
 
 PAW_PBE Si 05Jan2001                   :
 energy of atom  1       EATOM= -103.0669
 kinetic energy error for atom=    0.0013 (will be added to EATOM!!)
 
 
 POSCAR: Si2                                     
  positions in direct lattice
  No initial velocities read in
 exchange correlation table for  LEXCH =        8
   RHO(1)=    0.500       N(1)  =     2000
   RHO(2)=  100.500       N(2)  =     4000
 


--------------------------------------------------------------------------------------------------------


 ion  position               nearest neighbor table
   1  0.250  0.750  0.500-   2 2.53   2 2.53   2 2.53   2 2.53   2 3.11   2 3.11   2 3.11   2 3.11

   2  0.000  0.000  0.000-   1 2.53   1 2.53   1 2.53   1 2.53   1 3.11   1 3.11   1 3.11   1 3.11

 
  LATTYP: Found a body centered tetragonal cell.
 ALAT       =     4.9000000000
 C/A-ratio  =     0.5200000000
  
  Lattice vectors:
  
 A1 = (  -2.4500000000,   2.4500000000,   1.2740000000)
 A2 = (   2.4500000000,  -2.4500000000,   1.2740000000)
 A3 = (   2.4500000000,   2.4500000000,  -1.2740000000)


Analysis of symmetry for initial positions (statically):
=====================================================================
 Subroutine PRICEL returns:
 Original cell was already a primitive cell.
 

 Routine SETGRP: Setting up the symmetry group for a 
 body centered tetragonal supercell.


 Subroutine GETGRP returns: Found 16 space group operations
 (whereof  8 operations were pure point group operations)
 out of a pool of 16 trial point group operations.


The static configuration has the point symmetry D_2d.
 The point group associated with its full space group is D_4h.


Analysis of symmetry for dynamics (positions and initial velocities):
=====================================================================
 Subroutine PRICEL returns:
 Original cell was already a primitive cell.
 

 Routine SETGRP: Setting up the symmetry group for a 
 body centered tetragonal supercell.


 Subroutine GETGRP returns: Found 16 space group operations
 (whereof  8 operations were pure point group operations)
 out of a pool of 16 trial point group operations.


The dynamic configuration has the point symmetry D_2d.
 The point group associated with its full space group is D_4h.


 Subroutine INISYM returns: Found 16 space group operations
 (whereof  8 operations are pure point group operations),
 and found     1 'primitive' translations

 
 
 KPOINTS: Automatic kpoint scheme                 

Automatic generation of k-mesh.
Space group operators:
 irot       det(A)        alpha          n_x          n_y          n_z        tau_x        tau_y        tau_z
    1     1.000000     0.000000     1.000000     0.000000     0.000000     0.000000     0.000000     0.000000
    2    -1.000000    90.000000    -0.000000    -0.000000    -1.000000     0.000000     0.000000     0.000000
    3     1.000000   180.000000    -0.000000    -0.000000    -1.000000     0.000000     0.000000     0.000000
    4    -1.000000    90.000000    -0.000000     0.000000     1.000000     0.000000     0.000000     0.000000
    5    -1.000000   180.000000     0.000000    -1.000000     0.000000     0.000000     0.000000     0.000000
    6     1.000000   180.000000     0.707107     0.707107    -0.000000     0.000000     0.000000     0.000000
    7    -1.000000   180.000000     1.000000     0.000000     0.000000     0.000000     0.000000     0.000000
    8     1.000000   180.000000     0.707107    -0.707107     0.000000     0.000000     0.000000     0.000000
    9    -1.000000     0.000000     1.000000     0.000000     0.000000     0.250000     0.750000     0.500000
   10     1.000000    90.000000    -0.000000    -0.000000    -1.000000     0.250000     0.750000     0.500000
   11    -1.000000   180.000000    -0.000000    -0.000000    -1.000000     0.250000     0.750000     0.500000
   12     1.000000    90.000000    -0.000000     0.000000     1.000000     0.250000     0.750000     0.500000
   13     1.000000   180.000000     0.000000    -1.000000     0.000000     0.250000     0.750000     0.500000
   14    -1.000000   180.000000     0.707107     0.707107    -0.000000     0.250000     0.750000     0.500000
   15     1.000000   180.000000     1.000000     0.000000     0.000000     0.250000     0.750000     0.500000
   16    -1.000000   180.000000     0.707107    -0.707107     0.000000     0.250000     0.750000     0.500000
 
 Subroutine IBZKPT returns following result:
 ===========================================
 
 Found     28 irreducible k-points:
 
 Following reciprocal coordinates:
            Coordinates               Weight
  0.083333  0.083333  0.083333    128.000000
  0.250000  0.083333  0.083333    256.000000
  0.416667  0.083333  0.083333    128.000000
 -0.083333  0.083333  0.083333     64.000000
  0.250000  0.250000  0.083333    128.000000
  0.416667  0.250000  0.083333    256.000000
 -0.416667  0.250000  0.083333    128.000000
 -0.250000  0.250000  0.083333    128.000000
 -0.083333  0.250000  0.083333    128.000000
  0.416667  0.416667  0.083333     64.000000
 -0.416667  0.416667  0.083333    128.000000
 -0.250000  0.416667  0.083333    256.000000
 -0.083333  0.416667  0.083333    128.000000
 -0.416667 -0.416667  0.083333    128.000000
 -0.250000 -0.416667  0.083333    256.000000
 -0.083333 -0.416667  0.083333    128.000000
 -0.250000 -0.250000  0.083333    128.000000
 -0.083333 -0.250000  0.083333    128.000000
 -0.083333 -0.083333  0.083333     32.000000
  0.250000  0.250000  0.250000     32.000000
 -0.250000  0.250000  0.250000     64.000000
 -0.416667  0.416667  0.250000    128.000000
 -0.250000  0.416667  0.250000    128.000000
 -0.416667 -0.416667  0.250000    128.000000
 -0.250000 -0.416667  0.250000    128.000000
 -0.250000 -0.250000  0.250000     32.000000
 -0.416667  0.416667  0.416667     64.000000
 -0.416667 -0.416667  0.416667     32.000000
 
 Following cartesian coordinates:
            Coordinates               Weight
  0.034014  0.034014  0.065411    128.000000
  0.034014  0.068027  0.130822    256.000000
  0.034014  0.102041  0.196232    128.000000
  0.034014  0.000000 -0.000000     64.000000
  0.068027  0.068027  0.196232    128.000000
  0.068027  0.102041  0.261643    256.000000
  0.068027 -0.068027 -0.065411    128.000000
  0.068027 -0.034014  0.000000    128.000000
  0.068027  0.000000  0.065411    128.000000
  0.102041  0.102041  0.327054     64.000000
  0.102041 -0.068027 -0.000000    128.000000
  0.102041 -0.034014  0.065411    256.000000
  0.102041  0.000000  0.130822    128.000000
 -0.068027 -0.068027 -0.327054    128.000000
 -0.068027 -0.034014 -0.261643    256.000000
 -0.068027  0.000000 -0.196232    128.000000
 -0.034014 -0.034014 -0.196232    128.000000
 -0.034014  0.000000 -0.130822    128.000000
 -0.000000  0.000000 -0.065411     32.000000
  0.102041  0.102041  0.196232     32.000000
  0.102041  0.000000  0.000000     64.000000
  0.136054 -0.034014 -0.000000    128.000000
  0.136054  0.000000  0.065411    128.000000
 -0.034014 -0.034014 -0.327054    128.000000
 -0.034014  0.000000 -0.261643    128.000000
 -0.000000  0.000000 -0.196232     32.000000
  0.170068  0.000000 -0.000000     64.000000
  0.000000  0.000000 -0.327054     32.000000
 


--------------------------------------------------------------------------------------------------------




 Dimension of arrays:
   k-points           NKPTS =     28   k-points in BZ     NKDIM =     28   number of bands    NBANDS=      8
   number of dos      NEDOS =    301   number of ions     NIONS =      2
   non local maximal  LDIM  =      4   non local SUM 2l+1 LMDIM =      8
   total plane-waves  NPLWV =   5832
   max r-space proj   IRMAX =      1   max aug-charges    IRDMAX=   6573
   dimension x,y,z NGX =    18 NGY =   18 NGZ =   18
   dimension x,y,z NGXF=    36 NGYF=   36 NGZF=   36
   support grid    NGXF=    36 NGYF=   36 NGZF=   36
   ions per type =               2
   NGX,Y,Z   is equivalent  to a cutoff of   8.11,  8.11,  8.11 a.u.
   NGXF,Y,Z  is equivalent  to a cutoff of  16.21, 16.21, 16.21 a.u.

 SYSTEM =  unknown system                          
 POSCAR =  Si2                                     

 Startparameter for this run:
   NWRITE =      2    write-flag & timer
   PREC   = normal    normal or accurate (medium, high low for compatibility)
   ISTART =      1    job   : 0-new  1-cont  2-samecut
   ICHARG =      0    charge: 1-file 2-atom 10-const
   ISPIN  =      1    spin polarized calculation?
   LNONCOLLINEAR =      F non collinear calculations
   LSORBIT =      F    spin-orbit coupling
   INIWAV =      1    electr: 0-lowe 1-rand  2-diag
   LASPH  =      F    aspherical Exc in radial PAW
   METAGGA=      F    non-selfconsistent MetaGGA calc.

 Electronic Relaxation 1
   ENCUT  =  350.0 eV  25.72 Ry    5.07 a.u.   5.63  5.63  5.63*2*pi/ulx,y,z
   ENINI  =  350.0     initial cutoff
   ENAUG  =  322.1 eV  augmentation charge cutoff
   NELM   =     60;   NELMIN=  2; NELMDL=  0     # of ELM steps 
   EDIFF  = 0.4E-03   stopping-criterion for ELM
   LREAL  =      F    real-space projection
   NLSPLINE    = F    spline interpolate recip. space projectors
   LCOMPAT=      F    compatible to vasp.4.4
   GGA_COMPAT  = T    GGA compatible to vasp.4.4-vasp.4.6
   LMAXPAW     = -100 max onsite density
   LMAXMIX     =    2 max onsite mixed and CHGCAR
   VOSKOWN=      0    Vosko Wilk Nusair interpolation
   ROPT   =    0.00000
 Ionic relaxation
   EDIFFG = -.1E-01   stopping-criterion for IOM
   NSW    =     15    number of steps for IOM
   NBLOCK =      1;   KBLOCK =     15    inner block; outer block 
   IBRION =      2    ionic relax: 0-MD 1-quasi-New 2-CG
   NFREE  =      1    steps in history (QN), initial steepest desc. (CG)
   ISIF   =      2    stress and relaxation
   IWAVPR =     11    prediction:  0-non 1-charg 2-wave 3-comb
   ISYM   =      2    0-nonsym 1-usesym 2-fastsym
   LCORR  =      T    Harris-Foulkes like correction to forces

   POTIM  = 0.5000    time-step for ionic-motion
   TEIN   =    0.0    initial temperature
   TEBEG  =    0.0;   TEEND  =   0.0 temperature during run
   SMASS  =  -3.00    Nose mass-parameter (am)
   estimated Nose-frequenzy (Omega)   =  0.10E-29 period in steps =****** mass=  -0.311E-27a.u.
   SCALEE = 1.0000    scale energy and forces
   NPACO  =    256;   APACO  = 16.0  distance and # of slots for P.C.
   PSTRESS=    0.0 pullay stress

  Mass of Ions in am
   POMASS =  28.09
  Ionic Valenz
   ZVAL   =   4.00
  Atomic Wigner-Seitz radii
   RWIGS  =  -1.00
  virtual crystal weights 
   VCA    =   1.00
   NELECT =       8.0000    total number of electrons
   NUPDOWN=      -1.0000    fix difference up-down

 DOS related values:
   EMIN   =  10.00;   EMAX   =-10.00  energy-range for DOS
   EFERMI =   0.00
   ISMEAR =     0;   SIGMA  =   0.20  broadening in eV -4-tet -1-fermi 0-gaus

 Electronic relaxation 2 (details)
   IALGO  =     38    algorithm
   LDIAG  =      T    sub-space diagonalisation (order eigenvalues)
   LSUBROT=      F    optimize rotation matrix (better conditioning)
   TURBO    =      0    0=normal 1=particle mesh
   IRESTART =      0    0=no restart 2=restart with 2 vectors
   NREBOOT  =      0    no. of reboots
   NMIN     =      0    reboot dimension
   EREF     =   0.00    reference energy to select bands
   IMIX   =      4    mixing-type and parameters
     AMIX     =   0.40;   BMIX     =  1.00
     AMIX_MAG =   1.60;   BMIX_MAG =  1.00
     AMIN     =   0.10
     WC   =   100.;   INIMIX=   1;  MIXPRE=   1;  MAXMIX= -45

 Intra band minimization:
   WEIMIN = 0.0010     energy-eigenvalue tresh-hold
   EBREAK =  0.13E-04  absolut break condition
   DEPER  =   0.30     relativ break condition  

   TIME   =   0.40     timestep for ELM

  volume/ion in A,a.u.               =      15.29       103.21
  Fermi-wavevector in a.u.,A,eV,Ry     =   1.046930  1.978411 14.912834  1.096062
  Thomas-Fermi vector in A             =   2.181789
 
 Write flags
   LWAVE        =      T    write WAVECAR
   LDOWNSAMPLE  =      F    k-point downsampling of WAVECAR
   LCHARG       =      T    write CHGCAR
   LVTOT        =      F    write LOCPOT, total local potential
   LVHAR        =      F    write LOCPOT, Hartree potential only
   LELF         =      F    write electronic localiz. function (ELF)
   LORBIT       =      0    0 simple, 1 ext, 2 COOP (PROOUT), +10 PAW based schemes


 Dipole corrections
   LMONO  =      F    monopole corrections only (constant potential shift)
   LDIPOL =      F    correct potential (dipole corrections)
   IDIPOL =      0    1-x, 2-y, 3-z, 4-all directions 
   EPSILON=  1.0000000 bulk dielectric constant

 Exchange correlation treatment:
   GGA     =    --    GGA type
   LEXCH   =     8    internal setting for exchange type
   VOSKOWN=      0    Vosko Wilk Nusair interpolation
   LHFCALC =     F    Hartree Fock is set to
   LHFONE  =     F    Hartree Fock one center treatment
   AEXX    =    0.0000 exact exchange contribution

 Linear response parameters
   LEPSILON=     F    determine dielectric tensor
   LRPA    =     F    only Hartree local field effects (RPA)
   LNABLA  =     F    use nabla operator in PAW spheres
   LVEL    =     F    velocity operator in full k-point grid
   LINTERFAST=   F  fast interpolation
   KINTER  =     0    interpolate to denser k-point grid
   CSHIFT  =0.1000    complex shift for real part using Kramers Kronig
   OMEGAMAX=  -1.0    maximum frequency
   DEG_THRESHOLD= 0.2000000E-02 threshold for treating states as degnerate
   RTIME   =   -0.100 relaxation time in fs
  (WPLASMAI=    0.000 imaginary part of plasma frequency in eV, 0.658/RTIME)
   DFIELD  = 0.0000000 0.0000000 0.0000000 field for delta impulse in time
 
 Orbital magnetization related:
   ORBITALMAG=     F  switch on orbital magnetization
   LCHIMAG   =     F  perturbation theory with respect to B field
   DQ        =  0.001000  dq finite difference perturbation B field
   LLRAUG    =     F  two centre corrections for induced B field



--------------------------------------------------------------------------------------------------------


 conjugate gradient relaxation of ions
 charge density and potential will be updated during run
 non-spin polarized calculation
 Variant of blocked Davidson
 Davidson routine will perform the subspace rotation
 perform sub-space diagonalisation
    after iterative eigenvector-optimisation
 modified Broyden-mixing scheme, WC =      100.0
 initial mixing is a Kerker type mixing with AMIX =  0.4000 and BMIX =      1.0000
 Hartree-type preconditioning will be used
 using additional bands            4
 reciprocal scheme for non local part
 use partial core corrections
 calculate Harris-corrections to forces 
   (improved forces if not selfconsistent)
 use gradient corrections 
 use of overlap-Matrix (Vanderbilt PP)
 Gauss-broadening in eV      SIGMA  =   0.20


--------------------------------------------------------------------------------------------------------


  energy-cutoff  :      350.00
  volume of cell :       30.59
      direct lattice vectors                 reciprocal lattice vectors
    -2.450000000  2.450000000  1.274000000     0.000000000  0.204081633  0.392464678
     2.450000000 -2.450000000  1.274000000     0.204081633  0.000000000  0.392464678
     2.450000000  2.450000000 -1.274000000     0.204081633  0.204081633 -0.000000000

  length of vectors
     3.691622408  3.691622408  3.691622408     0.442354876  0.442354876  0.288615013


 
 old parameters found on file WAVECAR:
  energy-cutoff  :      350.00
  volume of cell :       30.59
      direct lattice vectors                 reciprocal lattice vectors
    -2.450000000  2.450000000  1.274000000     0.000000000  0.204081633  0.392464678
     2.450000000 -2.450000000  1.274000000     0.204081633  0.000000000  0.392464678
     2.450000000  2.450000000 -1.274000000     0.204081633  0.204081633 -0.000000000

  length of vectors

 
 k-points in units of 2pi/SCALE and weight: Automatic kpoint scheme                 
   0.03401361  0.03401361  0.06541078       0.037
   0.03401361  0.06802721  0.13082156       0.074
   0.03401361  0.10204082  0.19623234       0.037
   0.03401361 -0.00000000 -0.00000000       0.019
   0.06802721  0.06802721  0.19623234       0.037
   0.06802721  0.10204082  0.26164312       0.074
   0.06802721 -0.06802721 -0.06541078       0.037
   0.06802721 -0.03401361 -0.00000000       0.037
   0.06802721  0.00000000  0.06541078       0.037
   0.10204082  0.10204082  0.32705390       0.019
   0.10204082 -0.06802721 -0.00000000       0.037
   0.10204082 -0.03401361  0.06541078       0.074
   0.10204082  0.00000000  0.13082156       0.037
  -0.06802721 -0.06802721 -0.32705390       0.037
  -0.06802721 -0.03401361 -0.26164312       0.074
  -0.06802721 -0.00000000 -0.19623234       0.037
  -0.03401361 -0.03401361 -0.19623234       0.037
  -0.03401361 -0.00000000 -0.13082156       0.037
   0.00000000  0.00000000 -0.06541078       0.009
   0.10204082  0.10204082  0.19623234       0.009
   0.10204082  0.00000000 -0.00000000       0.019
   0.13605442 -0.03401361 -0.00000000       0.037
   0.13605442  0.00000000  0.06541078       0.037
  -0.03401361 -0.03401361 -0.32705390       0.037
  -0.03401361  0.00000000 -0.26164312       0.037
   0.00000000  0.00000000 -0.19623234       0.009
   0.17006803  0.00000000 -0.00000000       0.019
  -0.00000000 -0.00000000 -0.32705390       0.009
 
 k-points in reciprocal lattice and weights: Automatic kpoint scheme                 
   0.08333333  0.08333333  0.08333333       0.037
   0.25000000  0.08333333  0.08333333       0.074
   0.41666667  0.08333333  0.08333333       0.037
  -0.08333333  0.08333333  0.08333333       0.019
   0.25000000  0.25000000  0.08333333       0.037
   0.41666667  0.25000000  0.08333333       0.074
  -0.41666667  0.25000000  0.08333333       0.037
  -0.25000000  0.25000000  0.08333333       0.037
  -0.08333333  0.25000000  0.08333333       0.037
   0.41666667  0.41666667  0.08333333       0.019
  -0.41666667  0.41666667  0.08333333       0.037
  -0.25000000  0.41666667  0.08333333       0.074
  -0.08333333  0.41666667  0.08333333       0.037
  -0.41666667 -0.41666667  0.08333333       0.037
  -0.25000000 -0.41666667  0.08333333       0.074
  -0.08333333 -0.41666667  0.08333333       0.037
  -0.25000000 -0.25000000  0.08333333       0.037
  -0.08333333 -0.25000000  0.08333333       0.037
  -0.08333333 -0.08333333  0.08333333       0.009
   0.25000000  0.25000000  0.25000000       0.009
  -0.25000000  0.25000000  0.25000000       0.019
  -0.41666667  0.41666667  0.25000000       0.037
  -0.25000000  0.41666667  0.25000000       0.037
  -0.41666667 -0.41666667  0.25000000       0.037
  -0.25000000 -0.41666667  0.25000000       0.037
  -0.25000000 -0.25000000  0.25000000       0.009
  -0.41666667  0.41666667  0.41666667       0.019
  -0.41666667 -0.41666667  0.41666667       0.009
 
 position of ions in fractional coordinates (direct lattice) 
   0.25000000  0.75000000  0.50000000
   0.00000000  0.00000000  0.00000000
 
 position of ions in cartesian coordinates  (Angst):
   2.45000000  0.00000000  0.63700000
   0.00000000  0.00000000  0.00000000
 


--------------------------------------------------------------------------------------------------------


 k-point  1 :   0.0833 0.0833 0.0833  plane waves:     461
 k-point  2 :   0.2500 0.0833 0.0833  plane waves:     463
 k-point  3 :   0.4167 0.0833 0.0833  plane waves:     460
 k-point  4 :  -0.0833 0.0833 0.0833  plane waves:     453
 k-point  5 :   0.2500 0.2500 0.0833  plane waves:     462
 k-point  6 :   0.4167 0.2500 0.0833  plane waves:     457
 k-point  7 :  -0.4167 0.2500 0.0833  plane waves:     452
 k-point  8 :  -0.2500 0.2500 0.0833  plane waves:     458
 k-point  9 :  -0.0833 0.2500 0.0833  plane waves:     456
 k-point 10 :   0.4167 0.4167 0.0833  plane waves:     452
 k-point 11 :  -0.4167 0.4167 0.0833  plane waves:     446
 k-point 12 :  -0.2500 0.4167 0.0833  plane waves:     449
 k-point 13 :  -0.0833 0.4167 0.0833  plane waves:     451
 k-point 14 :  -0.4167-0.4167 0.0833  plane waves:     445
 k-point 15 :  -0.2500-0.4167 0.0833  plane waves:     452
 k-point 16 :  -0.0833-0.4167 0.0833  plane waves:     459
 k-point 17 :  -0.2500-0.2500 0.0833  plane waves:     458
 k-point 18 :  -0.0833-0.2500 0.0833  plane waves:     462
 k-point 19 :  -0.0833-0.0833 0.0833  plane waves:     464
 k-point 20 :   0.2500 0.2500 0.2500  plane waves:     464
 k-point 21 :  -0.2500 0.2500 0.2500  plane waves:     455
 k-point 22 :  -0.4167 0.4167 0.2500  plane waves:     449
 k-point 23 :  -0.2500 0.4167 0.2500  plane waves:     453
 k-point 24 :  -0.4167-0.4167 0.2500  plane waves:     451
 k-point 25 :  -0.2500-0.4167 0.2500  plane waves:     455
 k-point 26 :  -0.2500-0.2500 0.2500  plane waves:     460
 k-point 27 :  -0.4167 0.4167 0.4167  plane waves:     456
 k-point 28 :  -0.4167-0.4167 0.4167  plane waves:     464

 maximum and minimum number of plane-waves per node :       464      445

 maximum number of plane-waves:       464
 maximum index in each direction: 
   IXMAX=    6   IYMAX=    6   IZMAX=    5
   IXMIN=   -6   IYMIN=   -6   IZMIN=   -6


 serial   3D FFT for wavefunctions
 parallel 3D FFT for charge:
    minimum data exchange during FFTs selected (reduces bandwidth)


 total amount of memory used by VASP MPI-rank0    31875. kBytes
=======================================================================

   base      :      30000. kBytes
   nonl-proj :        846. kBytes
   fftplans  :        247. kBytes
   grid      :        561. kBytes
   one-center:          6. kBytes
   wavefun   :        215. kBytes
 
     INWAV:  cpu time    0.0800: real time    0.5498
 Broyden mixing: mesh for mixing (old mesh)
   NGX = 11   NGY = 11   NGZ = 11
  (NGX  = 36   NGY  = 36   NGZ  = 36)
  gives a total of   1331 points

 charge density for first step will be calculated from the start-wavefunctions


--------------------------------------------------------------------------------------------------------


 Maximum index for augmentation-charges          911 (set IRDMAX)


--------------------------------------------------------------------------------------------------------


 initial charge from wavefunction
 First call to EWALD:  gamma=   0.567
 Maximum number of real-space cells 4x 4x 3
 Maximum number of reciprocal cells 3x 3x 3

    FEWALD:  cpu time    0.0080: real time    0.0065


--------------------------------------- Iteration      1(   1)  ---------------------------------------


    POTLOK:  cpu time    0.0280: real time    0.0374
    SETDIJ:  cpu time    0.0120: real time    0.0094
     EDDAV:  cpu time    0.2160: real time    0.2220
       DOS:  cpu time    0.0000: real time    0.0024
    CHARGE:  cpu time    0.0320: real time    0.0323
    MIXING:  cpu time    0.0040: real time    0.0020
    --------------------------------------------
      LOOP:  cpu time    0.2920: real time    0.3059

 eigenvalue-minimisations  :   280
 total energy-change (2. order) :-0.1029615E+02  (-0.3054085E-06)
 number of electron       7.9999995 magnetization 
 augmentation part       -0.4724022 magnetization 

 Broyden mixing:
  rms(total) = 0.46005E-04    rms(broyden)= 0.46002E-04
  rms(prec ) = 0.11104E-03
  weight for this iteration     100.00

 Free energy of the ion-electron system (eV)
  ---------------------------------------------------
  alpha Z        PSCENC =         4.40202223
  Ewald energy   TEWEN  =      -265.18101312
  -Hartree energ DENC   =        -2.49891346
  -exchange      EXHF   =         0.00000000
  -V(xc)+E(xc)   XCENC  =       -17.58076572
  PAW double counting   =        70.14467327      -35.05591452
  entropy T*S    EENTRO =        -0.01136941
  eigenvalues    EBANDS =        29.35387251
  atomic energy  EATOM  =       206.13125414
  Solvation  Ediel_sol  =         0.00000000
  ---------------------------------------------------
  free energy    TOTEN  =       -10.29615408 eV

  energy without entropy =      -10.28478467  energy(sigma->0) =      -10.29046937


--------------------------------------------------------------------------------------------------------




--------------------------------------- Iteration      1(   2)  ---------------------------------------


    POTLOK:  cpu time    0.0240: real time    0.0351
    SETDIJ:  cpu time    0.0080: real time    0.0089
     EDDAV:  cpu time    0.2000: real time    0.1998
       DOS:  cpu time    0.0000: real time    0.0018
    --------------------------------------------
      LOOP:  cpu time    0.2320: real time    0.2456

 eigenvalue-minimisations  :   256
 total energy-change (2. order) :-0.2126217E-07  (-0.2449176E-07)
 number of electron       7.9999995 magnetization 
 augmentation part       -0.4724022 magnetization 

 Free energy of the ion-electron system (eV)
  ---------------------------------------------------
  alpha Z        PSCENC =         4.40202223
  Ewald energy   TEWEN  =      -265.18101312
  -Hartree energ DENC   =        -2.49902222
  -exchange      EXHF   =         0.00000000
  -V(xc)+E(xc)   XCENC  =       -17.58074250
  PAW double counting   =        70.14457398      -35.05581043
  entropy T*S    EENTRO =        -0.01136941
  eigenvalues    EBANDS =        29.35395321
  atomic energy  EATOM  =       206.13125414
  Solvation  Ediel_sol  =         0.00000000
  ---------------------------------------------------
  free energy    TOTEN  =       -10.29615410 eV

  energy without entropy =      -10.28478469  energy(sigma->0) =      -10.29046940


--------------------------------------------------------------------------------------------------------




 average (electrostatic) potential at core
  the test charge radii are     0.9892
  (the norm of the test charge is              1.0000)
       1 -80.5534       2 -80.5534
 
 
 
 E-fermi :   9.1526     XC(G=0): -10.8915     alpha+bet :-15.6819


 k-point     1 :       0.0833    0.0833    0.0833
  band No.  band energies     occupation 
      1      -3.6676      2.00000
      2       3.9092      2.00000
      3       7.1232      2.00000
      4       8.6257      1.99981
      5      12.8080      0.00000
      6      13.7020      0.00000
      7      13.9405      0.00000
      8      15.7755      0.00000

 k-point     2 :       0.2500    0.0833    0.0833
  band No.  band energies     occupation 
      1      -1.3427      2.00000
      2       4.2815      2.00000
      3       7.4915      2.00000
      4       7.9699      2.00000
      5       9.7228      0.00006
      6      12.2948      0.00000
      7      13.5420      0.00000
      8      14.3577      0.00000

 k-point     3 :       0.4167    0.0833    0.0833
  band No.  band energies     occupation 
      1       2.1903      2.00000
      2       2.7368      2.00000
      3       6.0269      2.00000
      4       6.1197      2.00000
      5       9.5703      0.00314
      6      11.3330      0.00000
      7      13.6600      0.00000
      8      14.4829      0.00000

 k-point     4 :      -0.0833    0.0833    0.0833
  band No.  band energies     occupation 
      1      -4.4503      2.00000
      2       4.5062      2.00000
      3       5.6931      2.00000
      4       8.2443      2.00000
      5      11.4354      0.00000
      6      14.3066      0.00000
      7      17.5004      0.00000
      8      18.0837      0.00000

 k-point     5 :       0.2500    0.2500    0.0833
  band No.  band energies     occupation 
      1       2.0954      2.00000
      2       3.9935      2.00000
      3       4.0965      2.00000
      4       5.8476      2.00000
      5      10.9751      0.00000
      6      12.1842      0.00000
      7      13.7859      0.00000
      8      14.2948      0.00000

 k-point     6 :       0.4167    0.2500    0.0833
  band No.  band energies     occupation 
      1      -0.0526      2.00000
      2       1.8486      2.00000
      3       6.9941      2.00000
      4       8.3021      2.00000
      5       9.9521      0.00000
      6      11.7644      0.00000
      7      13.5469      0.00000
      8      15.1938      0.00000

 k-point     7 :      -0.4167    0.2500    0.0833
  band No.  band energies     occupation 
      1      -2.6832      2.00000
      2       1.1682      2.00000
      3       8.0160      2.00000
      4       9.8257      0.00000
      5      11.4309      0.00000
      6      12.8981      0.00000
      7      14.0705      0.00000
      8      14.3175      0.00000

 k-point     8 :      -0.2500    0.2500    0.0833
  band No.  band energies     occupation 
      1      -3.7907      2.00000
      2       1.9452      2.00000
      3       5.9573      2.00000
      4       9.8275      0.00000
      5      11.4359      0.00000
      6      14.4639      0.00000
      7      15.3192      0.00000
      8      18.8893      0.00000

 k-point     9 :      -0.0833    0.2500    0.0833
  band No.  band energies     occupation 
      1      -3.3393      2.00000
      2       3.6536      2.00000
      3       5.1753      2.00000
      4      10.6727      0.00000
      5      11.7936      0.00000
      6      13.2304      0.00000
      7      13.9838      0.00000
      8      15.9339      0.00000

 k-point    10 :       0.4167    0.4167    0.0833
  band No.  band energies     occupation 
      1      -1.0597      2.00000
      2      -1.0597      2.00000
      3       9.4689      0.02533
      4       9.4689      0.02533
      5      11.3492      0.00000
      6      11.3492      0.00000
      7      13.7085      0.00000
      8      13.7085      0.00000

 k-point    11 :      -0.4167    0.4167    0.0833
  band No.  band energies     occupation 
      1      -2.4816      2.00000
      2      -0.5477      2.00000
      3       7.1744      2.00000
      4       9.0168      1.66298
      5      11.2361      0.00000
      6      13.0657      0.00000
      7      18.1999      0.00000
      8      18.5220      0.00000

 k-point    12 :      -0.2500    0.4167    0.0833
  band No.  band energies     occupation 
      1      -2.3601      2.00000
      2       1.4304      2.00000
      3       5.5691      2.00000
      4       9.1694      0.90519
      5      11.3584      0.00000
      6      13.4596      0.00000
      7      15.5206      0.00000
      8      16.7227      0.00000

 k-point    13 :      -0.0833    0.4167    0.0833
  band No.  band energies     occupation 
      1      -0.6992      2.00000
      2       4.2635      2.00000
      3       5.8775      2.00000
      4       6.4720      2.00000
      5      10.0676      0.00000
      6      12.2928      0.00000
      7      13.3195      0.00000
      8      15.3832      0.00000

 k-point    14 :      -0.4167   -0.4167    0.0833
  band No.  band energies     occupation 
      1      -0.7523      2.00000
      2      -0.7474      2.00000
      3       7.0545      2.00000
      4       7.0733      2.00000
      5      11.2657      0.00000
      6      14.4723      0.00000
      7      15.2725      0.00000
      8      15.3662      0.00000

 k-point    15 :      -0.2500   -0.4167    0.0833
  band No.  band energies     occupation 
      1       0.5714      2.00000
      2       2.4079      2.00000
      3       5.8056      2.00000
      4       6.5558      2.00000
      5       8.2336      2.00000
      6      11.8299      0.00000
      7      15.3759      0.00000
      8      16.9663      0.00000

 k-point    16 :      -0.0833   -0.4167    0.0833
  band No.  band energies     occupation 
      1       1.4732      2.00000
      2       3.4397      2.00000
      3       6.3758      2.00000
      4       7.6047      2.00000
      5       8.1906      2.00000
      6      10.7778      0.00000
      7      11.6286      0.00000
      8      15.6785      0.00000

 k-point    17 :      -0.2500   -0.2500    0.0833
  band No.  band energies     occupation 
      1       1.1680      2.00000
      2       4.8835      2.00000
      3       4.9318      2.00000
      4       7.7308      2.00000
      5       8.7100      1.99825
      6      10.2653      0.00000
      7      12.6279      0.00000
      8      13.4738      0.00000

 k-point    18 :      -0.0833   -0.2500    0.0833
  band No.  band energies     occupation 
      1      -1.9933      2.00000
      2       6.7116      2.00000
      3       7.7171      2.00000
      4       8.4853      2.00000
      5       9.8745      0.00000
      6      11.1291      0.00000
      7      12.3593      0.00000
      8      13.5353      0.00000

 k-point    19 :      -0.0833   -0.0833    0.0833
  band No.  band energies     occupation 
      1      -3.9973      2.00000
      2       6.7532      2.00000
      3       6.8236      2.00000
      4       6.8236      2.00000
      5      11.1349      0.00000
      6      14.4969      0.00000
      7      14.7745      0.00000
      8      16.7114      0.00000

 k-point    20 :       0.2500    0.2500    0.2500
  band No.  band energies     occupation 
      1       3.3986      2.00000
      2       3.3986      2.00000
      3       4.0595      2.00000
      4       4.0595      2.00000
      5      13.2071      0.00000
      6      13.2071      0.00000
      7      15.0225      0.00000
      8      15.0226      0.00000

 k-point    21 :      -0.2500    0.2500    0.2500
  band No.  band energies     occupation 
      1      -3.1379      2.00000
      2       1.9297      2.00000
      3       3.6275      2.00000
      4       8.5375      1.99999
      5      12.8874      0.00000
      6      16.0159      0.00000
      7      17.2452      0.00000
      8      18.2741      0.00000

 k-point    22 :      -0.4167    0.4167    0.2500
  band No.  band energies     occupation 
      1      -1.8476      2.00000
      2       0.0231      2.00000
      3       4.2693      2.00000
      4       6.0864      2.00000
      5      14.7267      0.00000
      6      16.1623      0.00000
      7      17.8177      0.00000
      8      18.1828      0.00000

 k-point    23 :      -0.2500    0.4167    0.2500
  band No.  band energies     occupation 
      1      -1.4011      2.00000
      2       1.7133      2.00000
      3       3.4676      2.00000
      4       6.4987      2.00000
      5      10.8181      0.00000
      6      16.4691      0.00000
      7      17.5090      0.00000
      8      18.3605      0.00000

 k-point    24 :      -0.4167   -0.4167    0.2500
  band No.  band energies     occupation 
      1       0.1350      2.00000
      2       0.1453      2.00000
      3       4.3920      2.00000
      4       4.3947      2.00000
      5      10.5579      0.00000
      6      17.6246      0.00000
      7      18.2223      0.00000
      8      19.0077      0.00000

 k-point    25 :      -0.2500   -0.4167    0.2500
  band No.  band energies     occupation 
      1       1.7677      2.00000
      2       2.9870      2.00000
      3       4.7399      2.00000
      4       5.2501      2.00000
      5       5.9996      2.00000
      6      13.9497      0.00000
      7      15.3296      0.00000
      8      17.2371      0.00000

 k-point    26 :      -0.2500   -0.2500    0.2500
  band No.  band energies     occupation 
      1       0.8532      2.00000
      2       5.7736      2.00000
      3       5.8662      2.00000
      4       7.2633      2.00000
      5       7.2633      2.00000
      6      11.5872      0.00000
      7      12.2470      0.00000
      8      12.2470      0.00000

 k-point    27 :      -0.4167    0.4167    0.4167
  band No.  band energies     occupation 
      1      -0.6292      2.00000
      2       0.6167      2.00000
      3       2.4356      2.00000
      4       3.6636      2.00000
      5      16.1748      0.00000
      6      16.3838      0.00000
      7      19.3824      0.00000
      8      20.4844      0.00000

 k-point    28 :      -0.4167   -0.4167    0.4167
  band No.  band energies     occupation 
      1       1.0489      2.00000
      2       1.0665      2.00000
      3       2.8662      2.00000
      4       2.8662      2.00000
      5      10.2843      0.00000
      6      19.1702      0.00000
      7      20.3041      0.00000
      8      20.3041      0.00000


--------------------------------------------------------------------------------------------------------


 soft charge-density along one line, spin component           1
         0         1         2         3         4         5         6         7         8         9
 total charge-density along one line
 
 pseudopotential strength for first ion, spin component:           1
 18.064  -0.003   0.000  -0.000  -0.000  -0.000   0.000   0.000
 -0.003   0.005  -0.000   0.000   0.000   0.000  -0.000  -0.000
  0.000  -0.000   4.116   0.000   0.000  -0.006  -0.000  -0.000
 -0.000   0.000   0.000   4.117   0.000  -0.000  -0.006  -0.000
 -0.000   0.000   0.000   0.000   4.116  -0.000  -0.000  -0.006
 -0.000   0.000  -0.006  -0.000  -0.000   0.005   0.000   0.000
  0.000  -0.000  -0.000  -0.006  -0.000   0.000   0.005   0.000
  0.000  -0.000  -0.000  -0.000  -0.006   0.000   0.000   0.005
 total augmentation occupancy for first ion, spin component:           1
  1.607  -0.479   0.000   0.000   0.000   0.000   0.000   0.000
 -0.479   0.882  -0.000   0.000   0.000   0.000   0.000  -0.000
  0.000   0.000   0.904   0.000  -0.000  -0.476   0.000   0.000
  0.000   0.000   0.000   0.858   0.000   0.000  -0.491   0.000
  0.000   0.000  -0.000   0.000   0.904   0.000   0.000  -0.476
  0.000  -0.000  -0.476   0.000   0.000   0.331  -0.000  -0.000
  0.000   0.000   0.000  -0.491   0.000   0.000   0.364  -0.000
  0.000  -0.000   0.000   0.000  -0.476  -0.000  -0.000   0.331


------------------------ aborting loop because EDIFF is reached ----------------------------------------


    CHARGE:  cpu time    0.0360: real time    0.0379
    FORLOC:  cpu time    0.0040: real time    0.0008
    FORNL :  cpu time    0.0120: real time    0.0142
    STRESS:  cpu time    0.1120: real time    0.1126
    FORCOR:  cpu time    0.0200: real time    0.0202
    FORHAR:  cpu time    0.0080: real time    0.0045
    MIXING:  cpu time    0.0000: real time    0.0013
    OFIELD:  cpu time    0.0000: real time    0.0003

  FORCE on cell =-STRESS in cart. coord.  units (eV):
  Direction    XX          YY          ZZ          XY          YZ          ZX
  --------------------------------------------------------------------------------------
  Alpha Z     4.40202     4.40202     4.40202
  Ewald     -90.96023   -90.96023   -83.26083    -0.00000     0.00000     0.00000
  Hartree     0.55212     0.55212     1.39486    -0.00000    -0.00000    -0.00000
  E(xc)     -25.40584   -25.40584   -25.37271    -0.00000     0.00000     0.00000
  Local     -11.03592   -11.03592   -17.57250    -0.00002    -0.00002    -0.00002
  n-local    76.67079    76.62261    76.53574     1.06930    -0.54208    -0.35527
  augment   -12.06968   -12.06968   -11.93898     0.00002     0.00002     0.00002
  Kinetic    57.33667    58.15263    55.90931     1.97734    -1.11795    -3.33102
  Fock        0.00000     0.00000     0.00000     0.00000     0.00000     0.00000
  -------------------------------------------------------------------------------------
  Total      -0.12617    -0.12617     0.09692    -0.00000     0.00000    -0.00000
  in kB      -6.60874    -6.60874     5.07630    -0.00000     0.00000    -0.00000
  external pressure =       -2.71 kB  Pullay stress =        0.00 kB


 VOLUME and BASIS-vectors are now :
 -----------------------------------------------------------------------------
  energy-cutoff  :      350.00
  volume of cell :       30.59
      direct lattice vectors                 reciprocal lattice vectors
    -2.450000000  2.450000000  1.274000000     0.000000000  0.204081633  0.392464678
     2.450000000 -2.450000000  1.274000000     0.204081633  0.000000000  0.392464678
     2.450000000  2.450000000 -1.274000000     0.204081633  0.204081633 -0.000000000

  length of vectors
     3.691622408  3.691622408  3.691622408     0.442354876  0.442354876  0.288615013


 FORCES acting on ions
    electron-ion (+dipol)            ewald-force                    non-local-force                 convergence-correction
 -----------------------------------------------------------------------------------------------
   -.194E-06 0.194E-06 0.183E-13   0.198E-14 0.156E-15 0.342E-17   -.609E-16 0.113E-15 -.105E-16   0.248E-10 -.248E-10 0.111E-15
   0.194E-06 -.194E-06 -.697E-14   -.185E-14 0.943E-16 0.891E-15   0.707E-16 -.110E-15 0.333E-18   -.248E-10 0.248E-10 0.515E-16
 -----------------------------------------------------------------------------------------------
   -.159E-13 0.338E-14 0.113E-13   0.139E-15 0.250E-15 0.894E-15   0.971E-17 0.278E-17 -.102E-16   -.726E-16 -.915E-16 0.163E-15
 
 
 POSITION                                       TOTAL-FORCE (eV/Angst)
 -----------------------------------------------------------------------------------
      2.45000      0.00000      0.63700         0.000000     -0.000000     -0.000000
      0.00000      0.00000      0.00000        -0.000000      0.000000      0.000000
 -----------------------------------------------------------------------------------
    total drift:                               -0.000000      0.000000      0.000000


--------------------------------------------------------------------------------------------------------



  FREE ENERGIE OF THE ION-ELECTRON SYSTEM (eV)
  ---------------------------------------------------
  free  energy   TOTEN  =       -10.29615410 eV

  energy  without entropy=      -10.28478469  energy(sigma->0) =      -10.29046940
 


--------------------------------------------------------------------------------------------------------


    POTLOK:  cpu time    0.0360: real time    0.0474


--------------------------------------------------------------------------------------------------------




--------------------------------------------------------------------------------------------------------


  
 reached required accuracy - stopping structural energy minimisation
 writing wavefunctions
     LOOP+:  cpu time    1.2960: real time    2.8916
    4ORBIT:  cpu time    0.0000: real time    0.0000

 total amount of memory used by VASP MPI-rank0    31875. kBytes
=======================================================================

   base      :      30000. kBytes
   nonl-proj :        846. kBytes
   fftplans  :        247. kBytes
   grid      :        561. kBytes
   one-center:          6. kBytes
   wavefun   :        215. kBytes
 
  
  
 General timing and accounting informations for this job:
 ========================================================
  
                  Total CPU time used (sec):        4.900
                            User time (sec):        3.324
                          System time (sec):        1.576
                         Elapsed time (sec):        8.645
  
                   Maximum memory used (kb):        8948.
                   Average memory used (kb):           0.
  
                          Minor page faults:        38022
                          Major page faults:           21
                 Voluntary context switches:        38196
