unknown system                          
   1.00000000000000     
    -2.415068    2.415068    1.313093
     2.415068   -2.415068    1.313093
     2.415068    2.415068   -1.313093
   Si
     2
Direct
  0.250000  0.750000  0.500000
 -0.000000  0.000000  0.000000
 
   32   32   32
 -.53611039744E+01 -.42001320157E+01 -.10751860803E+01 0.30875479402E+01 0.71566891688E+01
 0.10192438443E+02 0.11711102187E+02 0.11746884837E+02 0.10734778121E+02 0.92854964140E+01
 0.78355903869E+01 0.65393145674E+01 0.54754990619E+01 0.46712713605E+01 0.41199798584E+01
 0.38014628831E+01 0.36976304519E+01 0.38014679762E+01 0.41199613678E+01 0.46712330421E+01
 0.54754770577E+01 0.65393150257E+01 0.78355856613E+01 0.92854823534E+01 0.10734776635E+02
 0.11746892715E+02 0.11711097009E+02 0.10192430339E+02 0.71567051978E+01 0.30875717105E+01
 -.10751941027E+01 -.42001601914E+01 -.42001601914E+01 -.47630610581E+01 -.30839102075E+01
 0.31537701234E+00 0.44360144618E+01 0.81864106250E+01 0.10749500142E+02 0.11791059569E+02
 0.11468052391E+02 0.10278293237E+02 0.88151684060E+01 0.74092105865E+01 0.61829416131E+01
 0.51990519187E+01 0.44734084304E+01 0.39942106491E+01 0.37409331761E+01 0.36978921897E+01
 0.38616885201E+01 0.42428214170E+01 0.48612849123E+01 0.57357414944E+01 0.68664454778E+01
 0.82149635767E+01 0.96885116594E+01 0.11093178429E+02 0.11919604540E+02 0.11581067177E+02
 0.97280201810E+01 0.64500597527E+01 0.23511541835E+01 -.15648457414E+01 -.10751941027E+01
 -.30839330380E+01 -.30613337751E+01 -.10248396384E+01 0.23863086966E+01 0.61726015761E+01
 0.93503854228E+01 0.11268130848E+02 0.11752004040E+02 0.11066344848E+02 0.97409997689E+01
 0.82969305375E+01 0.69543754038E+01 0.58127474767E+01 0.49181208541E+01 0.42760890132E+01
 0.38708808388E+01 0.36825157545E+01 0.36983820059E+01 0.39189191624E+01 0.43576218353E+01
 0.50352665344E+01 0.59679562121E+01 0.71492638253E+01 0.85304420260E+01 0.10007541640E+02
 0.11347307543E+02 0.12012454883E+02 0.11469439891E+02 0.94652150920E+01 0.61988066049E+01
 0.23511541835E+01 0.30875717105E+01 0.31537276549E+00 -.10248531172E+01 -.51597562037E+00
 0.16640322650E+01 0.48196184434E+01 0.80202620062E+01 0.10443031731E+02 0.11624366545E+02
 0.11543541368E+02 0.10544630064E+02 0.91513526098E+01 0.77516931348E+01 0.64899234115E+01
 0.54441036619E+01 0.46441988479E+01 0.40870145792E+01 0.37544283867E+01 0.36281371832E+01
 0.36989244533E+01 0.39706702269E+01 0.44591268225E+01 0.51850587780E+01 0.61612941876E+01
 0.73745951009E+01 0.87674068320E+01 0.10228191701E+02 0.11497759309E+02 0.12051216666E+02
 0.11426253551E+02 0.94652150920E+01 0.64500597527E+01 0.71567051978E+01 0.44360295322E+01
 0.23863075113E+01 0.16640278210E+01 0.24972146059E+01 0.45925491505E+01 0.72626468691E+01
 0.97036335588E+01 0.11284675270E+02 0.11730337457E+02 0.11149252034E+02 0.99298282566E+01
 0.85349594274E+01 0.72015627252E+01 0.60347706423E+01 0.50914322618E+01 0.43873371077E+01
 0.39128220045E+01 0.36489365917E+01 0.35796299845E+01 0.36991264891E+01 0.40144456112E+01
 0.45428263435E+01 0.53039151045E+01 0.63065466828E+01 0.75313058976E+01 0.89143804719E+01
 0.10340834620E+02 0.11547521085E+02 0.12051216666E+02 0.11469439891E+02 0.97280201810E+01
 0.10192430339E+02 0.81864120418E+01 0.61726042260E+01 0.48196199647E+01 0.45925527790E+01
 0.55598539669E+01 0.73681012172E+01 0.93957392734E+01 0.11002862177E+02 0.11757596940E+02
 0.11553122289E+02 0.10592883943E+02 0.92705002572E+01 0.79170822756E+01 0.66688368944E+01
 0.56063605057E+01 0.47674193639E+01 0.41564056048E+01 0.37593286106E+01 0.35576861089E+01
 0.35383210062E+01 0.36988493833E+01 0.40486141866E+01 0.46051755415E+01 0.53862282170E+01
 0.63965755975E+01 0.76117186258E+01 0.89642630931E+01 0.10340834620E+02 0.11497759309E+02
 0.12012454883E+02 0.11581067177E+02 0.11711097009E+02 0.10749486887E+02 0.93503749081E+01
 0.80202577243E+01 0.72626504111E+01 0.73681083163E+01 0.82898658573E+01 0.96685290689E+01
 0.10989628891E+02 0.11791007905E+02 0.11825275749E+02 0.11120791465E+02 0.99357278450E+01
 0.86096436887E+01 0.73237361041E+01 0.61745095609E+01 0.52203309171E+01 0.44829787771E+01
 0.39585492164E+01 0.36310025993E+01 0.34834506580E+01 0.35057489075E+01 0.36982966999E+01
 0.40718771720E+01 0.46435264931E+01 0.54283508728E+01 0.64271310758E+01 0.76117186258E+01
 0.89143804719E+01 0.10228191701E+02 0.11347307543E+02 0.11919604540E+02 0.11746892715E+02
 0.11791057889E+02 0.11268120374E+02 0.10443016966E+02 0.97036230970E+01 0.93957407782E+01
 0.96685367994E+01 0.10408313197E+02 0.11293382409E+02 0.11937600927E+02 0.12048866251E+02
 0.11533608203E+02 0.10514099634E+02 0.92584223753E+01 0.79784690682E+01 0.67801483892E+01
 0.57373368656E+01 0.48895158087E+01 0.42465074939E+01 0.37993266089E+01 0.35316059251E+01
 0.34286145409E+01 0.34831083640E+01 0.36976982721E+01 0.40836576472E+01 0.46565132899E+01
 0.54283508728E+01 0.63965755975E+01 0.75313058976E+01 0.87674068320E+01 0.10007541640E+02
 0.11093178429E+02 0.10734776635E+02 0.11468060262E+02 0.11752007634E+02 0.11624357401E+02
 0.11284657835E+02 0.11002850246E+02 0.10989630797E+02 0.11293390024E+02 0.11777084641E+02
 0.12184755159E+02 0.12259772762E+02 0.11855717938E+02 0.10993289026E+02 0.98458326353E+01
 0.86137060775E+01 0.74070855019E+01 0.63084236217E+01 0.53722881469E+01 0.46236924487E+01
 0.40644091080E+01 0.36829010609E+01 0.34637803272E+01 0.33948901775E+01 0.34715026784E+01
 0.36974889325E+01 0.40836576472E+01 0.46435264931E+01 0.53862282170E+01 0.63065466828E+01
 0.73745951009E+01 0.85304420260E+01 0.96885116594E+01 0.92854823534E+01 0.10278287816E+02
 0.11066345369E+02 0.11543541777E+02 0.11730333151E+02 0.11757587173E+02 0.11790999297E+02
 0.11937601536E+02 0.12184761492E+02 0.12404198063E+02 0.12416541605E+02 0.12080245830E+02
 0.11360809310E+02 0.10351213747E+02 0.92086522520E+01 0.80373342544E+01 0.69214640972E+01
 0.59260774807E+01 0.50905410659E+01 0.44297471853E+01 0.39408772598E+01 0.36119561720E+01
 0.34294131539E+01 0.33835440427E+01 0.34715026784E+01 0.36976982721E+01 0.40718771720E+01
 0.46051755415E+01 0.53039151045E+01 0.61612941876E+01 0.71492638253E+01 0.82149635767E+01
 0.78355856613E+01 0.88151545045E+01 0.97409845691E+01 0.10544623884E+02 0.11149256796E+02
 0.11553127123E+02 0.11825270510E+02 0.12048857388E+02 0.12259773625E+02 0.12416549514E+02
 0.12418326881E+02 0.12159177294E+02 0.11588300806E+02 0.10745731057E+02 0.97367654638E+01
 0.86480189193E+01 0.75596992501E+01 0.65419100225E+01 0.56455874535E+01 0.48993044653E+01
 0.43118642156E+01 0.38785283809E+01 0.35881653624E+01 0.34294131539E+01 0.33948901775E+01
 0.34831083640E+01 0.36982966999E+01 0.40486141866E+01 0.45428263435E+01 0.51850587780E+01
 0.59679562121E+01 0.68664454778E+01 0.65393150257E+01 0.74092081084E+01 0.82969214460E+01
 0.91513406870E+01 0.99298221588E+01 0.10592887912E+02 0.11120797261E+02 0.11533606056E+02
 0.11855713024E+02 0.12080249774E+02 0.12159186424E+02 0.12025391631E+02 0.11633118822E+02
 0.10993271259E+02 0.10163984432E+02 0.92086965174E+01 0.81987324058E+01 0.72038073476E+01
 0.62821982420E+01 0.54746163066E+01 0.48027848596E+01 0.42723685206E+01 0.38785283809E+01
 0.36119561720E+01 0.34637803272E+01 0.34286145409E+01 0.35057489075E+01 0.36988493833E+01
 0.40144456112E+01 0.44591268225E+01 0.50352665344E+01 0.57357414944E+01 0.54754770577E+01
 0.61829412646E+01 0.69543869738E+01 0.77516966305E+01 0.85349473891E+01 0.92704888116E+01
 0.99357324427E+01 0.10514111066E+02 0.10993290332E+02 0.11360804411E+02 0.11588304561E+02
 0.11633128263E+02 0.11458706929E+02 0.11058346725E+02 0.10452133829E+02 0.96818266805E+01
 0.88052046897E+01 0.78860750102E+01 0.69847569715E+01 0.61505306487E+01 0.54172497899E+01
 0.48027848596E+01 0.43118642156E+01 0.39408772598E+01 0.36829010609E+01 0.35316059251E+01
 0.34834506580E+01 0.35383210062E+01 0.36991264891E+01 0.39706702269E+01 0.43576218353E+01
 0.48612849123E+01 0.46712330421E+01 0.51990345819E+01 0.58127555207E+01 0.64899409673E+01
 0.72015674588E+01 0.79170726488E+01 0.86096392191E+01 0.92584323148E+01 0.98458422427E+01
 0.10351210621E+02 0.10745725505E+02 0.10993276224E+02 0.11058355273E+02 0.10917284102E+02
 0.10566990719E+02 0.10027591222E+02 0.93388323478E+01 0.85528771259E+01 0.77260097638E+01
 0.69109051726E+01 0.61505306487E+01 0.54746163066E+01 0.48993044653E+01 0.44297471853E+01
 0.40644091080E+01 0.37993266089E+01 0.36310025993E+01 0.35576861089E+01 0.35796299845E+01
 0.36989244533E+01 0.39189191624E+01 0.42428214170E+01 0.41199613678E+01 0.44733901201E+01
 0.49181091062E+01 0.54441106233E+01 0.60347907606E+01 0.66688497296E+01 0.73237345152E+01
 0.79784666389E+01 0.86137122441E+01 0.92086585280E+01 0.97367636438E+01 0.10163981007E+02
 0.10452136413E+02 0.10566994896E+02 0.10487444819E+02 0.10211603237E+02 0.97577798136E+01
 0.91610118267E+01 0.84671401152E+01 0.77260097638E+01 0.69847569715E+01 0.62821982420E+01
 0.56455874535E+01 0.50905410659E+01 0.46236924487E+01 0.42465074939E+01 0.39585492164E+01
 0.37593286106E+01 0.36489365917E+01 0.36281371832E+01 0.36983820059E+01 0.38616885201E+01
 0.38014679762E+01 0.39942189851E+01 0.42760861013E+01 0.46441976753E+01 0.50914480364E+01
 0.56063834891E+01 0.61745192883E+01 0.67801443363E+01 0.74070845250E+01 0.80373426286E+01
 0.86480258396E+01 0.92086946671E+01 0.96818220475E+01 0.10027590020E+02 0.10211603500E+02
 0.10212344315E+02 0.10025648536E+02 0.96653873319E+01 0.91610118267E+01 0.85528771259E+01
 0.78860750102E+01 0.72038073476E+01 0.65419100225E+01 0.59260774807E+01 0.53722881469E+01
 0.48895158087E+01 0.44829787771E+01 0.41564056048E+01 0.39128220045E+01 0.37544283867E+01
 0.36825157545E+01 0.36978921897E+01 0.36976304519E+01 0.37409596769E+01 0.38709136032E+01
 0.40870374681E+01 0.43873514944E+01 0.47674322330E+01 0.52203418423E+01 0.57373423302E+01
 0.63084254382E+01 0.69214666451E+01 0.75597029856E+01 0.81987348925E+01 0.88052047896E+01
 0.93388303451E+01 0.97577763701E+01 0.10025645591E+02 0.10117827340E+02 0.10025648536E+02
 0.97577798136E+01 0.93388323478E+01 0.88052046897E+01 0.81987324058E+01 0.75596992501E+01
 0.69214640972E+01 0.63084236217E+01 0.57373368656E+01 0.52203309171E+01 0.47674193639E+01
 0.43873371077E+01 0.40870145792E+01 0.38708808388E+01 0.37409331761E+01 0.38014628831E+01
 0.36979146353E+01 0.36825657620E+01 0.37544804169E+01 0.39128543009E+01 0.41564187403E+01
 0.44829857521E+01 0.48895239705E+01 0.53722944589E+01 0.59260771358E+01 0.65419053586E+01
 0.72038061334E+01 0.78860800645E+01 0.85528819273E+01 0.91610099103E+01 0.96653815964E+01
 0.10025645591E+02 0.10212344315E+02 0.10211603237E+02 0.10027591222E+02 0.96818266805E+01
 0.92086965174E+01 0.86480189193E+01 0.80373342544E+01 0.74070855019E+01 0.67801483892E+01
 0.61745095609E+01 0.56063605057E+01 0.50914322618E+01 0.46441988479E+01 0.42760890132E+01
 0.39942106491E+01 0.41199798584E+01 0.38617153788E+01 0.36984236568E+01 0.36281868708E+01
 0.36489818242E+01 0.37593605490E+01 0.39585645813E+01 0.42465097020E+01 0.46236903657E+01
 0.50905402935E+01 0.56455855761E+01 0.62821935209E+01 0.69847548806E+01 0.77260138040E+01
 0.84671440843E+01 0.91610099103E+01 0.97577763701E+01 0.10211603500E+02 0.10487444819E+02
 0.10566990719E+02 0.10452133829E+02 0.10163984432E+02 0.97367654638E+01 0.92086522520E+01
 0.86137060775E+01 0.79784690682E+01 0.73237361041E+01 0.66688368944E+01 0.60347706423E+01
 0.54441036619E+01 0.49181208541E+01 0.44734084304E+01 0.46712713605E+01 0.42428661180E+01
 0.39189594795E+01 0.36989596016E+01 0.35796659889E+01 0.35577232250E+01 0.36310274801E+01
 0.37993270187E+01 0.40643945351E+01 0.44297396429E+01 0.48993086358E+01 0.54746168597E+01
 0.61505211511E+01 0.69108984813E+01 0.77260138040E+01 0.85528819273E+01 0.93388303451E+01
 0.10027590020E+02 0.10566994896E+02 0.10917284102E+02 0.11058346725E+02 0.10993271259E+02
 0.10745731057E+02 0.10351213747E+02 0.98458326353E+01 0.92584223753E+01 0.86096436887E+01
 0.79170822756E+01 0.72015627252E+01 0.64899234115E+01 0.58127474767E+01 0.51990519187E+01
 0.54754990619E+01 0.48613242984E+01 0.43576677992E+01 0.39707102568E+01 0.36991531338E+01
 0.35383372043E+01 0.34834609585E+01 0.35316057872E+01 0.36828865454E+01 0.39408595811E+01
 0.43118580830E+01 0.48027866674E+01 0.54172455242E+01 0.61505211511E+01 0.69847548806E+01
 0.78860800645E+01 0.88052047896E+01 0.96818220475E+01 0.10452136413E+02 0.11058355273E+02
 0.11458706929E+02 0.11633118822E+02 0.11588300806E+02 0.11360809310E+02 0.10993289026E+02
 0.10514099634E+02 0.99357278450E+01 0.92705002572E+01 0.85349594274E+01 0.77516931348E+01
 0.69543754038E+01 0.61829416131E+01 0.65393145674E+01 0.57357501965E+01 0.50352963422E+01
 0.44591702462E+01 0.40144749827E+01 0.36988478266E+01 0.35057307855E+01 0.34286010122E+01
 0.34637688715E+01 0.36119338507E+01 0.38785018616E+01 0.42723561024E+01 0.48027866674E+01
 0.54746168597E+01 0.62821935209E+01 0.72038061334E+01 0.81987348925E+01 0.92086946671E+01
 0.10163981007E+02 0.10993276224E+02 0.11633128263E+02 0.12025391631E+02 0.12159177294E+02
 0.12080245830E+02 0.11855717938E+02 0.11533608203E+02 0.11120791465E+02 0.10592883943E+02
 0.99298282566E+01 0.91513526098E+01 0.82969305375E+01 0.74092105865E+01 0.78355903869E+01
 0.68664430835E+01 0.59679588557E+01 0.51850751938E+01 0.45428453089E+01 0.40486127451E+01
 0.36982695227E+01 0.34830743961E+01 0.33948636324E+01 0.34293864366E+01 0.35881318575E+01
 0.38785018616E+01 0.43118580830E+01 0.48993086358E+01 0.56455855761E+01 0.65419053586E+01
 0.75597029856E+01 0.86480258396E+01 0.97367636438E+01 0.10745725505E+02 0.11588304561E+02
 0.12159186424E+02 0.12418326881E+02 0.12416541605E+02 0.12259772762E+02 0.12048866251E+02
 0.11825275749E+02 0.11553122289E+02 0.11149252034E+02 0.10544630064E+02 0.97409997689E+01
 0.88151684060E+01 0.92854964140E+01 0.82149778535E+01 0.71492647535E+01 0.61612819196E+01
 0.53039040170E+01 0.46051693420E+01 0.40718590431E+01 0.36976565850E+01 0.34714513974E+01
 0.33835039859E+01 0.34293864366E+01 0.36119338507E+01 0.39408595811E+01 0.44297396429E+01
 0.50905402935E+01 0.59260771358E+01 0.69214666451E+01 0.80373426286E+01 0.92086585280E+01
 0.10351210621E+02 0.11360804411E+02 0.12080249774E+02 0.12416549514E+02 0.12404198063E+02
 0.12184755159E+02 0.11937600927E+02 0.11791007905E+02 0.11757596940E+02 0.11730337457E+02
 0.11543541368E+02 0.11066344848E+02 0.10278293237E+02 0.10734778121E+02 0.96885264475E+01
 0.85304559395E+01 0.73745902357E+01 0.63065245497E+01 0.53862051918E+01 0.46435048255E+01
 0.40836207611E+01 0.36974330416E+01 0.34714513974E+01 0.33948636324E+01 0.34637688715E+01
 0.36828865454E+01 0.40643945351E+01 0.46236903657E+01 0.53722944589E+01 0.63084254382E+01
 0.74070845250E+01 0.86137122441E+01 0.98458422427E+01 0.10993290332E+02 0.11855713024E+02
 0.12259773625E+02 0.12184761492E+02 0.11777084641E+02 0.11293382409E+02 0.10989628891E+02
 0.11002862177E+02 0.11284675270E+02 0.11624366545E+02 0.11752004040E+02 0.11468052391E+02
 0.11746884837E+02 0.11093169387E+02 0.10007544698E+02 0.87674197950E+01 0.75313072647E+01
 0.63965518781E+01 0.54283135289E+01 0.46564772899E+01 0.40836207611E+01 0.36976565850E+01
 0.34830743961E+01 0.34286010122E+01 0.35316057872E+01 0.37993270187E+01 0.42465097020E+01
 0.48895239705E+01 0.57373423302E+01 0.67801443363E+01 0.79784666389E+01 0.92584323148E+01
 0.10514111066E+02 0.11533606056E+02 0.12048857388E+02 0.11937601536E+02 0.11293390024E+02
 0.10408313197E+02 0.96685290689E+01 0.93957392734E+01 0.97036335588E+01 0.10443031731E+02
 0.11268130848E+02 0.11791059569E+02 0.11711102187E+02 0.11919591726E+02 0.11347288876E+02
 0.10228191610E+02 0.89143962308E+01 0.76117177613E+01 0.64270995179E+01 0.54283135289E+01
 0.46435048255E+01 0.40718590431E+01 0.36982695227E+01 0.35057307855E+01 0.34834609585E+01
 0.36310274801E+01 0.39585645813E+01 0.44829857521E+01 0.52203418423E+01 0.61745192883E+01
 0.73237345152E+01 0.86096392191E+01 0.99357324427E+01 0.11120797261E+02 0.11825270510E+02
 0.11790999297E+02 0.10989630797E+02 0.96685367994E+01 0.82898658573E+01 0.73681012172E+01
 0.72626468691E+01 0.80202620062E+01 0.93503854228E+01 0.10749500142E+02 0.10192438443E+02
 0.11581076312E+02 0.12012445753E+02 0.11497737536E+02 0.10340827585E+02 0.89642735565E+01
 0.76117177613E+01 0.63965518781E+01 0.53862051918E+01 0.46051693420E+01 0.40486127451E+01
 0.36988478266E+01 0.35383372043E+01 0.35577232250E+01 0.37593605490E+01 0.41564187403E+01
 0.47674322330E+01 0.56063834891E+01 0.66688497296E+01 0.79170726488E+01 0.92704888116E+01
 0.10592887912E+02 0.11553127123E+02 0.11757587173E+02 0.11002850246E+02 0.93957407782E+01
 0.73681083163E+01 0.55598539669E+01 0.45925491505E+01 0.48196184434E+01 0.61726015761E+01
 0.81864106250E+01 0.71566891688E+01 0.97280272066E+01 0.11469455479E+02 0.12051206945E+02
 0.11547493404E+02 0.10340827585E+02 0.89143962308E+01 0.75313072647E+01 0.63065245497E+01
 0.53039040170E+01 0.45428453089E+01 0.40144749827E+01 0.36991531338E+01 0.35796659889E+01
 0.36489818242E+01 0.39128543009E+01 0.43873514944E+01 0.50914480364E+01 0.60347907606E+01
 0.72015674588E+01 0.85349473891E+01 0.99298221588E+01 0.11149256796E+02 0.11730333151E+02
 0.11284657835E+02 0.97036230970E+01 0.72626504111E+01 0.45925527790E+01 0.24972146059E+01
 0.16640322650E+01 0.23863086966E+01 0.44360144618E+01 0.30875479402E+01 0.64500343169E+01
 0.94652192290E+01 0.11426268186E+02 0.12051206945E+02 0.11497737536E+02 0.10228191610E+02
 0.87674197950E+01 0.73745902357E+01 0.61612819196E+01 0.51850751938E+01 0.44591702462E+01
 0.39707102568E+01 0.36989596016E+01 0.36281868708E+01 0.37544804169E+01 0.40870374681E+01
 0.46441976753E+01 0.54441106233E+01 0.64899409673E+01 0.77516966305E+01 0.91513406870E+01
 0.10544623884E+02 0.11543541777E+02 0.11624357401E+02 0.10443016966E+02 0.80202577243E+01
 0.48196199647E+01 0.16640278210E+01 -.51597562037E+00 -.10248396384E+01 0.31537701234E+00
 -.10751860803E+01 0.23511241885E+01 0.61987754262E+01 0.94652192290E+01 0.11469455479E+02
 0.12012445753E+02 0.11347288876E+02 0.10007544698E+02 0.85304559395E+01 0.71492647535E+01
 0.59679588557E+01 0.50352963422E+01 0.43576677992E+01 0.39189594795E+01 0.36984236568E+01
 0.36825657620E+01 0.38709136032E+01 0.42760861013E+01 0.49181091062E+01 0.58127555207E+01
 0.69543869738E+01 0.82969214460E+01 0.97409845691E+01 0.11066345369E+02 0.11752007634E+02
 0.11268120374E+02 0.93503749081E+01 0.61726042260E+01 0.23863075113E+01 -.10248531172E+01
 -.30613337751E+01 -.30839102075E+01 -.42001320157E+01 -.15648372876E+01 0.23511241885E+01
 0.64500343169E+01 0.97280272066E+01 0.11581076312E+02 0.11919591726E+02 0.11093169387E+02
 0.96885264475E+01 0.82149778535E+01 0.68664430835E+01 0.57357501965E+01 0.48613242984E+01
 0.42428661180E+01 0.38617153788E+01 0.36979146353E+01 0.37409596769E+01 0.39942189851E+01
 0.44733901201E+01 0.51990345819E+01 0.61829412646E+01 0.74092081084E+01 0.88151545045E+01
 0.10278287816E+02 0.11468060262E+02 0.11791057889E+02 0.10749486887E+02 0.81864120418E+01
 0.44360295322E+01 0.31537276549E+00 -.30839330380E+01 -.47630610581E+01 -.42000231430E+01
 -.33643505359E+01 -.62599155316E+00 0.31966303470E+01 0.70428255212E+01 0.99874785151E+01
 0.11514022983E+02 0.11601617168E+02 0.10635112293E+02 0.91989317276E+01 0.77435424013E+01
 0.64324027141E+01 0.53486808526E+01 0.45225395590E+01 0.39481652224E+01 0.36044889338E+01
 0.34715866716E+01 0.35403125705E+01 0.38157996592E+01 0.43154459311E+01 0.50609859620E+01
 0.60638261684E+01 0.73049541094E+01 0.87159896103E+01 0.10165389382E+02 0.11292294876E+02
 0.11510099852E+02 0.10363628056E+02 0.77582659261E+01 0.40862068455E+01 0.18784043439E+00
 -.28782678324E+01 -.33643758731E+01 -.42001249904E+01 -.28783257548E+01 0.18786834227E+00
 0.40862382392E+01 0.77582348489E+01 0.10363585547E+02 0.11510124618E+02 0.11292362881E+02
 0.10165407652E+02 0.87159389068E+01 0.73049169208E+01 0.60638576439E+01 0.50610309928E+01
 0.43154315112E+01 0.38157529827E+01 0.35403141656E+01 0.34716351592E+01 0.36045009174E+01
 0.39481143385E+01 0.45225055279E+01 0.53487224156E+01 0.64324609629E+01 0.77435356272E+01
 0.91988859668E+01 0.10635110736E+02 0.11601654658E+02 0.11514013546E+02 0.99874079929E+01
 0.70427920233E+01 0.31966930265E+01 -.62591697370E+00 -.52331131671E+00 -.27672931203E+01
 -.30838257740E+01 -.13874138930E+01 0.17825506135E+01 0.54817362838E+01 0.87200644321E+01
 0.10790957161E+02 0.11447485994E+02 0.10893393607E+02 0.96290781633E+01 0.81953492437E+01
 0.68463842842E+01 0.56896752260E+01 0.47773473193E+01 0.41177435131E+01 0.36951626182E+01
 0.34883747380E+01 0.34831693728E+01 0.36785587242E+01 0.40873329554E+01 0.47310730338E+01
 0.56289870073E+01 0.67803995376E+01 0.81444205078E+01 0.96256754157E+01 0.11024716281E+02
 0.11839302676E+02 0.11521689200E+02 0.97726959846E+01 0.67209335645E+01 0.29718622044E+01
 0.34572330106E+01 0.48301680853E+00 -.11793282991E+01 -.10248794336E+01 0.87428965344E+00
 0.39009903959E+01 0.71439289328E+01 0.97390195735E+01 0.11146397958E+02 0.11268334549E+02
 0.10398267281E+02 0.90492550087E+01 0.76559627473E+01 0.63853478591E+01 0.53242412404E+01
 0.45083230098E+01 0.39364896566E+01 0.35903228986E+01 0.34502737183E+01 0.35057729074E+01
 0.37597373910E+01 0.42278890823E+01 0.49325066237E+01 0.58899692539E+01 0.70926990305E+01
 0.84901921935E+01 0.99782311351E+01 0.11326957468E+02 0.12024498627E+02 0.11582126406E+02
 0.97903179256E+01 0.68654334795E+01 0.74597555289E+01 0.45761308916E+01 0.22344788402E+01
 0.11547034969E+01 0.16640379826E+01 0.35639181219E+01 0.62161347895E+01 0.88020990736E+01
 0.10624922677E+02 0.11324150493E+02 0.10937910579E+02 0.98197051556E+01 0.84498713708E+01
 0.71170993272E+01 0.59388845861E+01 0.49806564524E+01 0.42629848805E+01 0.37774881313E+01
 0.35046075949E+01 0.34271432924E+01 0.35383130255E+01 0.38447092226E+01 0.43641819307E+01
 0.51184324551E+01 0.61200152202E+01 0.73547131198E+01 0.87645024970E+01 0.10239949998E+02
 0.11536792297E+02 0.12167853800E+02 0.11716080446E+02 0.10055110957E+02 0.10522092212E+02
 0.84008981081E+01 0.61454438626E+01 0.44593000919E+01 0.38866623757E+01 0.45925154021E+01
 0.62967419182E+01 0.83962381269E+01 0.10209991242E+02 0.11227664716E+02 0.11260682306E+02
 0.10456290216E+02 0.91928447909E+01 0.78517855922E+01 0.65981652328E+01 0.55226139770E+01
 0.46703286336E+01 0.40491440633E+01 0.36455675847E+01 0.34403310264E+01 0.34193217237E+01
 0.35795296842E+01 0.39304100288E+01 0.44907114770E+01 0.52805326904E+01 0.63082329858E+01
 0.75536267331E+01 0.89534163406E+01 0.10397092071E+02 0.11647536439E+02 0.12266034610E+02
 0.11910418181E+02 0.12119924920E+02 0.11096184363E+02 0.95219931856E+01 0.79136166415E+01
 0.68261126146E+01 0.66323543132E+01 0.73680316209E+01 0.87209284485E+01 0.10168669225E+02
 0.11192496316E+02 0.11466388735E+02 0.10949405563E+02 0.98621194713E+01 0.85608858104E+01
 0.72770280363E+01 0.61178879892E+01 0.51507417281E+01 0.44030196297E+01 0.38728766053E+01
 0.35441686417E+01 0.33992001355E+01 0.34271055109E+01 0.36280800562E+01 0.40135535010E+01
 0.46021821482E+01 0.54115441477E+01 0.64454709998E+01 0.76788839815E+01 0.90461137458E+01
 0.10440102129E+02 0.11650437680E+02 0.12300979224E+02 0.12244155755E+02 0.12278909322E+02
 0.11654045804E+02 0.10626888002E+02 0.96102935579E+01 0.90083454093E+01 0.90450122646E+01
 0.96684978347E+01 0.10579399901E+02 0.11365574529E+02 0.11674043731E+02 0.11342107797E+02
 0.10440717093E+02 0.92243741482E+01 0.79525720828E+01 0.67482777945E+01 0.56936432843E+01
 0.48351270052E+01 0.41862347112E+01 0.37388324705E+01 0.34760481994E+01 0.33824092982E+01
 0.34502410071E+01 0.36823783627E+01 0.40911761232E+01 0.46940029589E+01 0.55052108043E+01
 0.65244409280E+01 0.77233376354E+01 0.90366310031E+01 0.10364204895E+02 0.11535393107E+02
 0.11295207887E+02 0.12065598228E+02 0.12317326716E+02 0.12070884538E+02 0.11530636417E+02
 0.10999677792E+02 0.10744844963E+02 0.10874988203E+02 0.11293306308E+02 0.11746685860E+02
 0.11943831298E+02 0.11682484959E+02 0.10929826267E+02 0.98282571644E+01 0.86054041715E+01
 0.73955513960E+01 0.62866565226E+01 0.53399354066E+01 0.45850880345E+01 0.40257616241E+01
 0.36503867938E+01 0.34428782364E+01 0.33904706095E+01 0.34883016527E+01 0.37408453073E+01
 0.41602809074E+01 0.47619574162E+01 0.55568054288E+01 0.65407998188E+01 0.76839193802E+01
 0.89239996990E+01 0.10170551766E+02 0.98672456722E+01 0.10929995419E+02 0.11743517219E+02
 0.12179096733E+02 0.12249010836E+02 0.12096753507E+02 0.11922641145E+02 0.11881503253E+02
 0.12004404635E+02 0.12184738986E+02 0.12233938533E+02 0.11975513483E+02 0.11330360787E+02
 0.10356065239E+02 0.92166501229E+01 0.80410813210E+01 0.69156385313E+01 0.59100359765E+01
 0.50681502525E+01 0.44073785522E+01 0.39253777986E+01 0.36095839670E+01 0.34456643704E+01
 0.34234618195E+01 0.35402665121E+01 0.38013627496E+01 0.42179697379E+01 0.48028411236E+01
 0.55634574101E+01 0.64930584997E+01 0.75618586010E+01 0.87130154154E+01 0.84135583087E+01
 0.94674920433E+01 0.10451764328E+02 0.11274487899E+02 0.11838038505E+02 0.12138790622E+02
 0.12261499413E+02 0.12320341089E+02 0.12387788204E+02 0.12450635060E+02 0.12416511947E+02
 0.12165397375E+02 0.11617294389E+02 0.10781881527E+02 0.97622133069E+01 0.86627894383E+01
 0.75628882707E+01 0.65345796023E+01 0.56319819487E+01 0.48860214931E+01 0.43062410755E+01
 0.38874291078E+01 0.36175529191E+01 0.34844818585E+01 0.34805095077E+01 0.36044783679E+01
 0.38616377103E+01 0.42615648181E+01 0.48142767391E+01 0.55243192664E+01 0.63832798892E+01
 0.73630565395E+01 0.70971885523E+01 0.80399861316E+01 0.89895227420E+01 0.98868090060E+01
 0.10678845920E+02 0.11306353539E+02 0.11749086329E+02 0.12042174157E+02 0.12234683196E+02
 0.12345215931E+02 0.12342084671E+02 0.12159190537E+02 0.11737426391E+02 0.11067910881E+02
 0.10208752627E+02 0.92313524349E+01 0.82041420279E+01 0.71965691561E+01 0.62682799644E+01
 0.54614450413E+01 0.47983277423E+01 0.42841013515E+01 0.39128691094E+01 0.36742193589E+01
 0.35584869174E+01 0.35600452488E+01 0.36786314191E+01 0.39189427107E+01 0.42887295957E+01
 0.47953985876E+01 0.54410729393E+01 0.62167136089E+01 0.60016488492E+01 0.67775523077E+01
 0.76102332833E+01 0.84550054831E+01 0.92652436065E+01 0.10001379193E+02 0.10635193772E+02
 0.11144061295E+02 0.11526557030E+02 0.11787938087E+02 0.11916179596E+02 0.11877270502E+02
 0.11633124558E+02 0.11170766389E+02 0.10515694926E+02 0.97091718123E+01 0.88064552144E+01
 0.78701402385E+01 0.69604760023E+01 0.61270442509E+01 0.54036298483E+01 0.48073543014E+01
 0.43416623509E+01 0.40014840798E+01 0.37786076447E+01 0.36658547244E+01 0.36594688757E+01
 0.37598010766E+01 0.39707130557E+01 0.42980043313E+01 0.47467745681E+01 0.53175440647E+01
 0.51599906532E+01 0.57488272318E+01 0.64195217155E+01 0.71442617651E+01 0.78882207145E+01
 0.86154067050E+01 0.92949089780E+01 0.99042551485E+01 0.10427624710E+02 0.10849437523E+02
 0.11149659538E+02 0.11301911940E+02 0.11277539472E+02 0.11058367072E+02 0.10643890101E+02
 0.10054516654E+02 0.93293082348E+01 0.85196292737E+01 0.76811483437E+01 0.68659708716E+01
 0.61162724950E+01 0.54605986943E+01 0.49135202523E+01 0.44783830865E+01 0.41518469742E+01
 0.39284236508E+01 0.38036518775E+01 0.37755586037E+01 0.38448733417E+01 0.40145549687E+01
 0.42887241783E+01 0.46706986677E+01 0.45710151354E+01 0.49760657292E+01 0.54703149522E+01
 0.60398638386E+01 0.66633514656E+01 0.73145808947E+01 0.79667853607E+01 0.85963466598E+01
 0.91837207663E+01 0.97107967643E+01 0.10156388149E+02 0.10493431208E+02 0.10690967948E+02
 0.10720998431E+02 0.10567001939E+02 0.10229983574E+02 0.97297582136E+01 0.91018611671E+01
 0.83918662298E+01 0.76487304483E+01 0.69182392271E+01 0.62375668995E+01 0.56321233065E+01
 0.51154718679E+01 0.46920113262E+01 0.43609965244E+01 0.41201749644E+01 0.39679925942E+01
 0.39043485468E+01 0.39305033085E+01 0.40486995592E+01 0.42615771809E+01 0.42179841839E+01
 0.44525473139E+01 0.47746119683E+01 0.51790742088E+01 0.56554552172E+01 0.61882353791E+01
 0.67588931789E+01 0.73485371421E+01 0.79394685984E+01 0.85144186123E+01 0.90536144446E+01
 0.95316600356E+01 0.99170830755E+01 0.10176172779E+02 0.10280015391E+02 0.10211606603E+02
 0.99701639371E+01 0.95716527905E+01 0.90461940956E+01 0.84334482985E+01 0.77768355252E+01
 0.71174749793E+01 0.64890960405E+01 0.59152628018E+01 0.54095855457E+01 0.49783788776E+01
 0.46242173853E+01 0.43487265846E+01 0.41537869204E+01 0.40414732337E+01 0.40136674793E+01
 0.40720033470E+01 0.40837319992E+01 0.41603137521E+01 0.43210399214E+01 0.45647088592E+01
 0.48875166334E+01 0.52821868282E+01 0.57383643938E+01 0.62440652814E+01 0.67869753423E+01
 0.73542580488E+01 0.79304432106E+01 0.84944196674E+01 0.90176244661E+01 0.94653329376E+01
 0.98013873949E+01 0.99947807060E+01 0.10025657998E+02 0.98889682006E+01 0.95952884927E+01
 0.91691229044E+01 0.86450678338E+01 0.80623224579E+01 0.74585794136E+01 0.68649888727E+01
 0.63038209112E+01 0.57893036996E+01 0.53305251002E+01 0.49344202558E+01 0.46073500597E+01
 0.43550922096E+01 0.41821231151E+01 0.40912116047E+01 0.41602827742E+01 0.40837670155E+01
 0.40912566062E+01 0.41821125176E+01 0.43550513872E+01 0.46073503808E+01 0.49344648163E+01
 0.53305514610E+01 0.57892885463E+01 0.63038082091E+01 0.68650069282E+01 0.74585973377E+01
 0.80623113235E+01 0.86450500120E+01 0.91691291228E+01 0.95953059917E+01 0.98889658868E+01
 0.10025637451E+02 0.99947698666E+01 0.98013964829E+01 0.94653435550E+01 0.90176204713E+01
 0.84944100025E+01 0.79304465028E+01 0.73542714890E+01 0.67869729954E+01 0.62440364736E+01
 0.57383393888E+01 0.52821978332E+01 0.48875405461E+01 0.45646907232E+01 0.43209805711E+01
 0.44525721317E+01 0.42179637952E+01 0.40719522004E+01 0.40136357373E+01 0.40414803937E+01
 0.41538072823E+01 0.43487306896E+01 0.46242077735E+01 0.49783795009E+01 0.54096036065E+01
 0.59152758974E+01 0.64890862575E+01 0.71174605194E+01 0.77768443399E+01 0.84334700366E+01
 0.90461933442E+01 0.95716283051E+01 0.99701517563E+01 0.10211616591E+02 0.10280013245E+02
 0.10176144597E+02 0.99170674667E+01 0.95316834445E+01 0.90536413123E+01 0.85144094912E+01
 0.79394474834E+01 0.73485475353E+01 0.67589177324E+01 0.61882212064E+01 0.56554045537E+01