   2   2   0   0
  0.1529437E+02  0.3691622E-09  0.3691622E-09  0.3691622E-09  0.5000000E-15
  1.000000000000000E-004
  CAR 
 unknown system                          
     23.52503172     -6.56536283  301      9.09574907      1.00000000
     -6.565  0.0000E+00  0.0000E+00
     -6.465  0.0000E+00  0.0000E+00
     -6.365  0.0000E+00  0.0000E+00
     -6.264  0.0000E+00  0.0000E+00
     -6.164  0.0000E+00  0.0000E+00
     -6.064  0.0000E+00  0.0000E+00
     -5.964  0.0000E+00  0.0000E+00
     -5.863  0.0000E+00  0.0000E+00
     -5.763  0.0000E+00  0.0000E+00
     -5.663  0.1315E-16  0.1319E-17
     -5.562  0.2750E-14  0.2772E-15
     -5.462  0.3510E-12  0.3548E-13
     -5.362  0.2736E-10  0.2780E-11
     -5.261  0.1306E-08  0.1338E-09
     -5.161  0.3835E-07  0.3981E-08
     -5.061  0.6966E-06  0.7385E-07
     -4.961  0.7913E-05  0.8676E-06
     -4.860  0.5740E-04  0.6624E-05
     -4.760  0.2755E-03  0.3426E-04
     -4.660  0.9233E-03  0.1269E-03
     -4.559  0.2286E-02  0.3561E-03
     -4.459  0.4316E-02  0.7890E-03
     -4.359  0.6309E-02  0.1422E-02
     -4.258  0.7631E-02  0.2187E-02
     -4.158  0.8854E-02  0.3075E-02
     -4.058  0.1056E-01  0.4135E-02
     -3.958  0.1196E-01  0.5334E-02
     -3.857  0.1261E-01  0.6599E-02
     -3.757  0.1324E-01  0.7927E-02
     -3.657  0.1421E-01  0.9352E-02
     -3.556  0.1520E-01  0.1088E-01
     -3.456  0.1588E-01  0.1247E-01
     -3.356  0.1607E-01  0.1408E-01
     -3.255  0.1573E-01  0.1566E-01
     -3.155  0.1611E-01  0.1728E-01
     -3.055  0.1896E-01  0.1918E-01
     -2.955  0.2276E-01  0.2146E-01
     -2.854  0.2376E-01  0.2384E-01
     -2.754  0.2096E-01  0.2595E-01
     -2.654  0.1728E-01  0.2768E-01
     -2.553  0.1634E-01  0.2932E-01
     -2.453  0.1917E-01  0.3124E-01
     -2.353  0.2338E-01  0.3359E-01
     -2.252  0.2587E-01  0.3618E-01
     -2.152  0.2588E-01  0.3878E-01
     -2.052  0.2534E-01  0.4132E-01
     -1.952  0.2589E-01  0.4392E-01
     -1.851  0.2678E-01  0.4660E-01
     -1.751  0.2635E-01  0.4924E-01
     -1.651  0.2458E-01  0.5171E-01
     -1.550  0.2290E-01  0.5401E-01
     -1.450  0.2281E-01  0.5629E-01
     -1.350  0.2562E-01  0.5886E-01
     -1.249  0.3032E-01  0.6191E-01
     -1.149  0.3357E-01  0.6527E-01
     -1.049  0.3340E-01  0.6862E-01
     -0.948  0.3029E-01  0.7166E-01
     -0.848  0.2658E-01  0.7433E-01
     -0.748  0.2521E-01  0.7686E-01
     -0.648  0.2714E-01  0.7958E-01
     -0.547  0.3079E-01  0.8267E-01
     -0.447  0.3436E-01  0.8611E-01
     -0.347  0.3693E-01  0.8982E-01
     -0.246  0.3771E-01  0.9360E-01
     -0.146  0.3630E-01  0.9724E-01
     -0.046  0.3398E-01  0.1006E+00
      0.055  0.3207E-01  0.1039E+00
      0.155  0.3055E-01  0.1069E+00
      0.255  0.3088E-01  0.1100E+00
      0.355  0.3431E-01  0.1135E+00
      0.456  0.3703E-01  0.1172E+00
      0.556  0.3559E-01  0.1207E+00
      0.656  0.3383E-01  0.1241E+00
      0.757  0.3647E-01  0.1278E+00
      0.857  0.4226E-01  0.1320E+00
      0.957  0.4763E-01  0.1368E+00
      1.058  0.4997E-01  0.1418E+00
      1.158  0.4724E-01  0.1466E+00
      1.258  0.4078E-01  0.1507E+00
      1.358  0.3634E-01  0.1543E+00
      1.459  0.3714E-01  0.1580E+00
      1.559  0.3906E-01  0.1619E+00
      1.659  0.3711E-01  0.1657E+00
      1.760  0.3214E-01  0.1689E+00
      1.860  0.2900E-01  0.1718E+00
      1.960  0.3136E-01  0.1749E+00
      2.061  0.3745E-01  0.1787E+00
      2.161  0.4229E-01  0.1829E+00
      2.261  0.4421E-01  0.1874E+00
      2.361  0.4375E-01  0.1918E+00
      2.462  0.4031E-01  0.1958E+00
      2.562  0.3536E-01  0.1994E+00
      2.662  0.3198E-01  0.2026E+00
      2.763  0.3102E-01  0.2057E+00
      2.863  0.3241E-01  0.2089E+00
      2.963  0.3564E-01  0.2125E+00
      3.064  0.3865E-01  0.2164E+00
      3.164  0.4042E-01  0.2204E+00
      3.264  0.4242E-01  0.2247E+00
      3.364  0.4516E-01  0.2292E+00
      3.465  0.4654E-01  0.2339E+00
      3.565  0.4469E-01  0.2384E+00
      3.665  0.4100E-01  0.2425E+00
      3.766  0.4016E-01  0.2465E+00
      3.866  0.4456E-01  0.2510E+00
      3.966  0.5032E-01  0.2560E+00
      4.067  0.5167E-01  0.2612E+00
      4.167  0.4680E-01  0.2659E+00
      4.267  0.3912E-01  0.2698E+00
      4.367  0.3414E-01  0.2732E+00
      4.468  0.3421E-01  0.2767E+00
      4.568  0.3837E-01  0.2805E+00
      4.668  0.4487E-01  0.2850E+00
      4.769  0.5196E-01  0.2902E+00
      4.869  0.5888E-01  0.2961E+00
      4.969  0.6384E-01  0.3026E+00
      5.070  0.6290E-01  0.3089E+00
      5.170  0.5625E-01  0.3145E+00
      5.270  0.4973E-01  0.3195E+00
      5.370  0.4675E-01  0.3242E+00
      5.471  0.4691E-01  0.3289E+00
      5.571  0.4945E-01  0.3338E+00
      5.671  0.5203E-01  0.3391E+00
      5.772  0.5183E-01  0.3443E+00
      5.872  0.4973E-01  0.3493E+00
      5.972  0.4897E-01  0.3542E+00
      6.073  0.5152E-01  0.3593E+00
      6.173  0.5764E-01  0.3651E+00
      6.273  0.6546E-01  0.3717E+00
      6.374  0.6961E-01  0.3787E+00
      6.474  0.6519E-01  0.3852E+00
      6.574  0.5464E-01  0.3907E+00
      6.674  0.4678E-01  0.3954E+00
      6.775  0.4895E-01  0.4003E+00
      6.875  0.6010E-01  0.4063E+00
      6.975  0.7020E-01  0.4133E+00
      7.076  0.7115E-01  0.4205E+00
      7.176  0.6714E-01  0.4272E+00
      7.276  0.6679E-01  0.4339E+00
      7.377  0.7013E-01  0.4410E+00
      7.477  0.7188E-01  0.4482E+00
      7.577  0.7064E-01  0.4552E+00
      7.677  0.6735E-01  0.4620E+00
      7.778  0.6274E-01  0.4683E+00
      7.878  0.5860E-01  0.4742E+00
      7.978  0.5621E-01  0.4798E+00
      8.079  0.5518E-01  0.4853E+00
      8.179  0.5392E-01  0.4908E+00
      8.279  0.5085E-01  0.4959E+00
      8.380  0.4767E-01  0.5006E+00
      8.480  0.4643E-01  0.5053E+00
      8.580  0.4481E-01  0.5098E+00
      8.680  0.4259E-01  0.5141E+00
      8.781  0.4354E-01  0.5184E+00
      8.881  0.4744E-01  0.5232E+00
      8.981  0.4927E-01  0.5281E+00
      9.082  0.4593E-01  0.5327E+00
      9.182  0.4070E-01  0.5368E+00
      9.282  0.4039E-01  0.5409E+00
      9.383  0.4670E-01  0.5455E+00
      9.483  0.5448E-01  0.5510E+00
      9.583  0.5799E-01  0.5568E+00
      9.683  0.5512E-01  0.5624E+00
      9.784  0.4847E-01  0.5672E+00
      9.884  0.4244E-01  0.5715E+00
      9.984  0.3919E-01  0.5754E+00
     10.085  0.3883E-01  0.5793E+00
     10.185  0.4067E-01  0.5834E+00
     10.285  0.4412E-01  0.5878E+00
     10.386  0.4951E-01  0.5928E+00
     10.486  0.5455E-01  0.5982E+00
     10.586  0.5417E-01  0.6037E+00
     10.686  0.4928E-01  0.6086E+00
     10.787  0.4784E-01  0.6134E+00
     10.887  0.5411E-01  0.6188E+00
     10.987  0.6406E-01  0.6253E+00
     11.088  0.7018E-01  0.6323E+00
     11.188  0.6942E-01  0.6393E+00
     11.288  0.6555E-01  0.6458E+00
     11.389  0.6056E-01  0.6519E+00
     11.489  0.5370E-01  0.6573E+00
     11.589  0.4940E-01  0.6623E+00
     11.689  0.5285E-01  0.6676E+00
     11.790  0.6040E-01  0.6736E+00
     11.890  0.6459E-01  0.6801E+00
     11.990  0.6459E-01  0.6866E+00
     12.091  0.6362E-01  0.6930E+00
     12.191  0.6260E-01  0.6992E+00
     12.291  0.6202E-01  0.7055E+00
     12.392  0.6304E-01  0.7118E+00
     12.492  0.6501E-01  0.7183E+00
     12.592  0.6682E-01  0.7250E+00
     12.692  0.7033E-01  0.7321E+00
     12.793  0.7674E-01  0.7398E+00
     12.893  0.8141E-01  0.7479E+00
     12.993  0.8026E-01  0.7560E+00
     13.094  0.7549E-01  0.7635E+00
     13.194  0.7003E-01  0.7706E+00
     13.294  0.6573E-01  0.7772E+00
     13.395  0.6515E-01  0.7837E+00
     13.495  0.6656E-01  0.7904E+00
     13.595  0.6612E-01  0.7970E+00
     13.696  0.6485E-01  0.8035E+00
     13.796  0.6426E-01  0.8100E+00
     13.896  0.6281E-01  0.8163E+00
     13.996  0.6147E-01  0.8224E+00
     14.097  0.6465E-01  0.8289E+00
     14.197  0.7200E-01  0.8361E+00
     14.297  0.7748E-01  0.8439E+00
     14.398  0.7860E-01  0.8518E+00
     14.498  0.7756E-01  0.8596E+00
     14.598  0.7455E-01  0.8670E+00
     14.699  0.6854E-01  0.8739E+00
     14.799  0.6297E-01  0.8802E+00
     14.899  0.6140E-01  0.8864E+00
     14.999  0.6077E-01  0.8925E+00
     15.100  0.5863E-01  0.8984E+00
     15.200  0.5936E-01  0.9043E+00
     15.300  0.6600E-01  0.9109E+00
     15.401  0.7466E-01  0.9184E+00
     15.501  0.7916E-01  0.9264E+00
     15.601  0.7639E-01  0.9340E+00
     15.702  0.6810E-01  0.9409E+00
     15.802  0.5780E-01  0.9467E+00
     15.902  0.4879E-01  0.9515E+00
     16.002  0.4297E-01  0.9559E+00
     16.103  0.3904E-01  0.9598E+00
     16.203  0.3787E-01  0.9636E+00
     16.303  0.4239E-01  0.9678E+00
     16.404  0.4893E-01  0.9727E+00
     16.504  0.5054E-01  0.9778E+00
     16.604  0.4576E-01  0.9824E+00
     16.705  0.3853E-01  0.9863E+00
     16.805  0.3435E-01  0.9897E+00
     16.905  0.3483E-01  0.9932E+00
     17.005  0.3685E-01  0.9969E+00
     17.106  0.3820E-01  0.1001E+01
     17.206  0.3874E-01  0.1005E+01
     17.306  0.3829E-01  0.1008E+01
     17.407  0.3837E-01  0.1012E+01
     17.507  0.4104E-01  0.1016E+01
     17.607  0.4419E-01  0.1021E+01
     17.708  0.4362E-01  0.1025E+01
     17.808  0.3936E-01  0.1029E+01
     17.908  0.3426E-01  0.1033E+01
     18.008  0.2961E-01  0.1036E+01
     18.109  0.2602E-01  0.1038E+01
     18.209  0.2414E-01  0.1041E+01
     18.309  0.2364E-01  0.1043E+01
     18.410  0.2321E-01  0.1045E+01
     18.510  0.2151E-01  0.1047E+01
     18.610  0.1914E-01  0.1049E+01
     18.711  0.1724E-01  0.1051E+01
     18.811  0.1463E-01  0.1053E+01
     18.911  0.1046E-01  0.1054E+01
     19.011  0.6877E-02  0.1054E+01
     19.112  0.6353E-02  0.1055E+01
     19.212  0.8305E-02  0.1056E+01
     19.312  0.9490E-02  0.1057E+01
     19.413  0.7966E-02  0.1058E+01
     19.513  0.5972E-02  0.1058E+01
     19.613  0.6727E-02  0.1059E+01
     19.714  0.9625E-02  0.1060E+01
     19.814  0.1092E-01  0.1061E+01
     19.914  0.8683E-02  0.1062E+01
     20.014  0.5125E-02  0.1062E+01
     20.115  0.3050E-02  0.1063E+01
     20.215  0.2686E-02  0.1063E+01
     20.315  0.3099E-02  0.1063E+01
     20.416  0.3833E-02  0.1064E+01
     20.516  0.4306E-02  0.1064E+01
     20.616  0.4058E-02  0.1064E+01
     20.717  0.3614E-02  0.1065E+01
     20.817  0.3533E-02  0.1065E+01
     20.917  0.3466E-02  0.1065E+01
     21.017  0.2940E-02  0.1066E+01
     21.118  0.2083E-02  0.1066E+01
     21.218  0.1366E-02  0.1066E+01
     21.318  0.1092E-02  0.1066E+01
     21.419  0.1219E-02  0.1066E+01
     21.519  0.1393E-02  0.1066E+01
     21.619  0.1206E-02  0.1067E+01
     21.720  0.6951E-03  0.1067E+01
     21.820  0.2552E-03  0.1067E+01
     21.920  0.5875E-04  0.1067E+01
     22.021  0.8414E-05  0.1067E+01
     22.121  0.7468E-06  0.1067E+01
     22.221  0.4093E-07  0.1067E+01
     22.321  0.1382E-08  0.1067E+01
     22.422  0.2867E-10  0.1067E+01
     22.522  0.3644E-12  0.1067E+01
     22.622  0.2835E-14  0.1067E+01
     22.723  0.1332E-16  0.1067E+01
     22.823  0.0000E+00  0.1067E+01
     22.923  0.0000E+00  0.1067E+01
     23.024  0.0000E+00  0.1067E+01
     23.124  0.0000E+00  0.1067E+01
     23.224  0.0000E+00  0.1067E+01
     23.324  0.0000E+00  0.1067E+01
     23.425  0.0000E+00  0.1067E+01
     23.525  0.0000E+00  0.1067E+01
