       N       E                     dE             d eps       ncg     rms          rms(c)
DAV:   1     0.937746510796E-01    0.93775E-01   -0.25926E+03  2600   0.513E+02
DAV:   2    -0.101381528941E+02   -0.10232E+02   -0.98990E+01  3872   0.615E+01
DAV:   3    -0.102530023970E+02   -0.11485E+00   -0.11479E+00  3352   0.761E+00
DAV:   4    -0.102532866189E+02   -0.28422E-03   -0.28422E-03  3912   0.360E-01
DAV:   5    -0.102532870361E+02   -0.41717E-06   -0.41714E-06  3344   0.829E-03    0.149E+00
DAV:   6    -0.102485919515E+02    0.46951E-02   -0.17940E-03  3376   0.326E-01    0.935E-01
DAV:   7    -0.102446825057E+02    0.39094E-02   -0.52941E-03  2848   0.571E-01    0.333E-02
DAV:   8    -0.102446677691E+02    0.14737E-04   -0.79838E-05  1888   0.753E-02
   1 F= -.10244668E+02 E0= -.10237662E+02  d E =-.102447E+02
       N       E                     dE             d eps       ncg     rms          rms(c)
DAV:   1    -0.102813270977E+02   -0.36645E-01   -0.97637E-01  3784   0.569E+00    0.599E-01
DAV:   2    -0.102713183578E+02    0.10009E-01   -0.21093E-02  3256   0.114E+00    0.336E-01
DAV:   3    -0.102664475427E+02    0.48708E-02   -0.13399E-02  3664   0.640E-01    0.307E-02
DAV:   4    -0.102664886576E+02   -0.41115E-04   -0.51128E-04  1880   0.189E-01
   2 F= -.10266489E+02 E0= -.10260105E+02  d E =-.218209E-01
       N       E                     dE             d eps       ncg     rms          rms(c)
DAV:   1    -0.102676697050E+02   -0.12222E-02   -0.32728E-02  3648   0.104E+00    0.103E-01
DAV:   2    -0.102673917045E+02    0.27800E-03   -0.66941E-04  2896   0.205E-01
   3 F= -.10267392E+02 E0= -.10261050E+02  d E =-.227239E-01
       N       E                     dE             d eps       ncg     rms          rms(c)
DAV:   1    -0.102679073523E+02   -0.23765E-03   -0.11537E-01  3688   0.196E+00    0.213E-01
DAV:   2    -0.102666546828E+02    0.12527E-02   -0.24830E-03  3288   0.387E-01    0.119E-01
DAV:   3    -0.102660518127E+02    0.60287E-03   -0.16461E-03  3088   0.225E-01    0.111E-02
DAV:   4    -0.102660581430E+02   -0.63303E-05   -0.72038E-05  1440   0.700E-02
   4 F= -.10266058E+02 E0= -.10259825E+02  d E =-.213904E-01
       N       E                     dE             d eps       ncg     rms          rms(c)
DAV:   1    -0.102680496579E+02   -0.19978E-02   -0.51314E-02  3664   0.130E+00    0.141E-01
DAV:   2    -0.102674938445E+02    0.55581E-03   -0.11245E-03  3216   0.262E-01    0.792E-02
DAV:   3    -0.102672160765E+02    0.27777E-03   -0.72091E-04  1736   0.151E-01
   5 F= -.10267216E+02 E0= -.10260913E+02  d E =-.225483E-01
       N       E                     dE             d eps       ncg     rms          rms(c)
DAV:   1    -0.102672901512E+02    0.20369E-03   -0.13458E-03  3448   0.223E-01    0.201E-02
DAV:   2    -0.102672809794E+02    0.91718E-05   -0.20514E-05  1360   0.368E-02
   6 F= -.10267281E+02 E0= -.10260967E+02  d E =-.226132E-01
       N       E                     dE             d eps       ncg     rms          rms(c)
DAV:   1    -0.102673268428E+02   -0.36692E-04   -0.19306E-03  3736   0.255E-01    0.277E-02
DAV:   2    -0.102673056842E+02    0.21159E-04   -0.39506E-05  1384   0.499E-02
   7 F= -.10267306E+02 E0= -.10260978E+02  d E =-.226379E-01
       N       E                     dE             d eps       ncg     rms          rms(c)
DAV:   1    -0.102672893647E+02    0.37478E-04   -0.27961E-04  1920   0.100E-01    0.120E-02
DAV:   2    -0.102672858221E+02    0.35426E-05   -0.96729E-06  1320   0.249E-02
   8 F= -.10267286E+02 E0= -.10260952E+02  d E =-.226181E-01
