unknown system                          
   1.00000000000000     
     0.000000    2.761708    2.761708
     2.761708    0.000000    2.761708
     2.761708    2.761708    0.000000
   Si
     2
Direct
  0.500000  0.500000  0.500000
  0.750000  0.750000  0.750000
 
   36   36   36
 0.82732     0.84284     0.89046     0.97332      1.0961      1.2648      1.4859      1.7657      2.1099      2.5219    
  3.0009      3.5393      4.1205      4.7174      5.2935      5.8060      6.2113      6.4717      6.5615      6.4717    
  6.2113      5.8060      5.2936      4.7175      4.1206      3.5394      3.0010      2.5219      2.1099      1.7657    
  1.4859      1.2648      1.0961     0.97332     0.89047     0.84284     0.84284     0.86989     0.92576      1.0137    
  1.1383      1.3046      1.5179      1.7831      2.1032      2.4788      2.9057      3.3735      3.8638      4.3506    
  4.8012      5.1807      5.4556      5.6002      5.6002      5.4556      5.1807      4.8013      4.3506      3.8639    
  3.3735      2.9057      2.4788      2.1032      1.7830      1.5179      1.3046      1.1383      1.0137     0.92576    
 0.86989     0.84283     0.89046     0.92576     0.98693      1.0772      1.2007      1.3617      1.5643      1.8116    
  2.1048      2.4418      2.8160      3.2151      3.6206      4.0084      4.3511      4.6208      4.7935      4.8530    
  4.7935      4.6208      4.3511      4.0084      3.6206      3.2151      2.8160      2.4417      2.1047      1.8115    
  1.5642      1.3617      1.2007      1.0772     0.98693     0.92575     0.89045     0.87894     0.97332      1.0137    
  1.0772      1.1669      1.2862      1.4387      1.6275      1.8541      2.1179      2.4148      2.7368      3.0707    
  3.3991      3.7008      3.9532      4.1355      4.2311      4.2311      4.1355      3.9532      3.7008      3.3991    
  3.0707      2.7367      2.4148      2.1178      1.8541      1.6275      1.4388      1.2862      1.1669      1.0772    
  1.0137     0.97330     0.95369     0.95370      1.0961      1.1383      1.2007      1.2862      1.3979      1.5385    
  1.7101      1.9129      2.1448      2.4007      2.6716      2.9448      3.2044      3.4325      3.6114      3.7257    
  3.7651      3.7257      3.6114      3.4325      3.2044      2.9447      2.6715      2.4007      2.1448      1.9129    
  1.7101      1.5386      1.3979      1.2862      1.2007      1.1383      1.0961      1.0719      1.0640      1.0719    
  1.2648      1.3046      1.3617      1.4387      1.5385      1.6631      1.8135      1.9891      2.1867      2.4007    
  2.6221      2.8392      3.0383      3.2046      3.3245      3.3874      3.3874      3.3245      3.2046      3.0382    
  2.8392      2.6221      2.4007      2.1867      1.9891      1.8136      1.6631      1.5386      1.4388      1.3617    
  1.3046      1.2648      1.2399      1.2279      1.2279      1.2399      1.4859      1.5179      1.5643      1.6275    
  1.7101      1.8135      1.9381      2.0826      2.2434      2.4148      2.5886      2.7543      2.9004      3.0153    
  3.0888      3.1142      3.0888      3.0153      2.9004      2.7543      2.5886      2.4149      2.2435      2.0826    
  1.9382      1.8135      1.7101      1.6275      1.5642      1.5179      1.4859      1.4653      1.4541      1.4505    
  1.4541      1.4654      1.7657      1.7831      1.8116      1.8541      1.9129      1.9891      2.0826      2.1919    
  2.3134      2.4418      2.5698      2.6887      2.7890      2.8619      2.9003      2.9003      2.8619      2.7890    
  2.6887      2.5698      2.4418      2.3134      2.1919      2.0826      1.9891      1.9129      1.8541      1.8115    
  1.7830      1.7657      1.7564      1.7522      1.7507      1.7507      1.7522      1.7564      2.1099      2.1032    
  2.1048      2.1179      2.1448      2.1867      2.2434      2.3134      2.3934      2.4788      2.5634      2.6402    
  2.7018      2.7417      2.7556      2.7417      2.7018      2.6402      2.5634      2.4788      2.3934      2.3134    
  2.2434      2.1867      2.1448      2.1178      2.1047      2.1032      2.1099      2.1211      2.1328      2.1415    
  2.1446      2.1414      2.1328      2.1211      2.5219      2.4788      2.4418      2.4148      2.4007      2.4007    
  2.4148      2.4418      2.4788      2.5219      2.5662      2.6062      2.6364      2.6528      2.6528      2.6365    
  2.6062      2.5662      2.5219      2.4788      2.4418      2.4148      2.4006      2.4006      2.4148      2.4418    
  2.4788      2.5219      2.5662      2.6062      2.6365      2.6528      2.6528      2.6364      2.6062      2.5662    
  3.0009      2.9057      2.8160      2.7368      2.6716      2.6221      2.5886      2.5698      2.5634      2.5662    
  2.5743      2.5838      2.5912      2.5939      2.5912      2.5839      2.5744      2.5662      2.5634      2.5697    
  2.5885      2.6220      2.6715      2.7368      2.8160      2.9058      3.0009      3.0949      3.1800      3.2481    
  3.2923      3.3076      3.2923      3.2481      3.1799      3.0949      3.5393      3.3735      3.2151      3.0707    
  2.9448      2.8392      2.7543      2.6887      2.6402      2.6062      2.5838      2.5707      2.5646      2.5646    
  2.5707      2.5839      2.6062      2.6401      2.6886      2.7542      2.8392      2.9447      3.0707      3.2151    
  3.3735      3.5394      3.7037      3.8556      3.9835      4.0763      4.1251      4.1251      4.0763      3.9835    
  3.8555      3.7036      4.1205      3.8638      3.6206      3.3991      3.2044      3.0383      2.9004      2.7890    
  2.7018      2.6364      2.5912      2.5646      2.5558      2.5646      2.5912      2.6364      2.7017      2.7889    
  2.9003      3.0382      3.2044      3.3991      3.6206      3.8639      4.1206      4.3788      4.6238      4.8390    
  5.0077      5.1156      5.1527      5.1156      5.0077      4.8390      4.6238      4.3788      4.7174      4.3506    
  4.0084      3.7008      3.4325      3.2046      3.0153      2.8619      2.7417      2.6528      2.5939      2.5646    
  2.5646      2.5939      2.6528      2.7416      2.8618      3.0152      3.2045      3.4325      3.7008      4.0085    
  4.3506      4.7175      5.0941      5.4609      5.7952      6.0730      6.2727      6.3772      6.3772      6.2727    
  6.0731      5.7952      5.4609      5.0941      5.2935      4.8012      4.3511      3.9532      3.6114      3.3245    
  3.0888      2.9003      2.7556      2.6528      2.5912      2.5707      2.5912      2.6528      2.7555      2.9002    
  3.0887      3.3244      3.6114      3.9533      4.3511      4.8013      5.2936      5.8103      6.3269      6.8135    
  7.2375      7.5678      7.7778      7.8499      7.7778      7.5678      7.2375      6.8135      6.3269      5.8103    
  5.8060      5.1807      4.6208      4.1355      3.7257      3.3874      3.1142      2.9003      2.7417      2.6365    
  2.5839      2.5839      2.6364      2.7416      2.9002      3.1140      3.3873      3.7257      4.1355      4.6208    
  5.1807      5.8060      6.4778      7.1670      7.8364      8.4438      8.9467      9.3067      9.4947      9.4947    
  9.3067      8.9467      8.4439      7.8364      7.1671      6.4778      6.2113      5.4556      4.7935      4.2311    
  3.7651      3.3874      3.0888      2.8619      2.7018      2.6062      2.5744      2.6062      2.7017      2.8618    
  3.0887      3.3873      3.7651      4.2311      4.7936      5.4556      6.2112      7.0423      7.9171      8.7920    
  9.6154      10.332      10.890      11.245      11.366      11.245      10.890      10.332      9.6153      8.7920    
  7.9171      7.0424      6.4717      5.6002      4.8530      4.2311      3.7257      3.3245      3.0153      2.7890    
  2.6402      2.5662      2.5662      2.6401      2.7889      3.0152      3.3244      3.7257      4.2311      4.8531    
  5.6002      6.4716      7.4526      8.5118      9.6017      10.663      11.629      12.431      13.007      13.309    
  13.309      13.007      12.431      11.629      10.663      9.6017      8.5118      7.4527      6.5615      5.6002    
  4.7935      4.1355      3.6114      3.2046      2.9004      2.6887      2.5634      2.5219      2.5634      2.6886    
  2.9003      3.2045      3.6114      4.1355      4.7936      5.6002      6.5614      7.6688      8.8945      10.191    
  11.495      12.731      13.816      14.668      15.213      15.401      15.213      14.667      13.816      12.731    
  11.495      10.191      8.8945      7.6688      6.4717      5.4556      4.6208      3.9532      3.4325      3.0382    
  2.7543      2.5698      2.4788      2.4788      2.5697      2.7542      3.0382      3.4325      3.9533      4.6208    
  5.4556      6.4716      7.6688      9.0266      10.502      12.032      13.537      14.924      16.092      16.937    
  17.380      17.380      16.937      16.091      14.923      13.537      12.032      10.502      9.0266      7.6688    
  6.2113      5.1807      4.3511      3.7008      3.2044      2.8392      2.5886      2.4418      2.3934      2.4418    
  2.5885      2.8392      3.2044      3.7008      4.3511      5.1807      6.2112      7.4526      8.8945      10.502    
  12.218      13.963      15.643      17.138      18.314      19.066      19.324      19.066      18.314      17.137    
  15.642      13.963      12.218      10.502      8.8945      7.4527      5.8060      4.8013      4.0084      3.3991    
  2.9447      2.6221      2.4149      2.3134      2.3134      2.4148      2.6220      2.9447      3.3991      4.0085    
  4.8013      5.8060      7.0423      8.5118      10.191      12.032      13.963      15.892      17.692      19.205    
  20.298      20.871      20.871      20.298      19.205      17.691      15.892      13.963      12.032      10.191    
  8.5118      7.0423      5.2936      4.3506      3.6206      3.0707      2.6715      2.4007      2.2435      2.1919    
  2.2434      2.4006      2.6715      3.0707      3.6206      4.3506      5.2936      6.4778      7.9171      9.6017    
  11.495      13.537      15.643      17.692      19.513      20.949      21.870      22.188      21.870      20.949    
  19.513      17.691      15.643      13.537      11.495      9.6017      7.9171      6.4778      4.7175      3.8639    
  3.2151      2.7367      2.4007      2.1867      2.0826      2.0826      2.1867      2.4006      2.7368      3.2151    
  3.8639      4.7175      5.8103      7.1670      8.7920      10.663      12.731      14.924      17.138      19.205    
  20.949      22.216      22.884      22.884      22.216      20.949      19.205      17.137      14.924      12.731    
  10.663      8.7920      7.1670      5.8103      4.1206      3.3735      2.8160      2.4148      2.1448      1.9891    
  1.9382      1.9891      2.1448      2.4148      2.8160      3.3735      4.1206      5.0941      6.3269      7.8364    
  9.6154      11.629      13.816      16.092      18.314      20.298      21.870      22.884      23.235      22.884    
  21.870      20.298      18.314      16.092      13.816      11.629      9.6153      7.8364      6.3270      5.0942    
  3.5394      2.9057      2.4417      2.1178      1.9129      1.8136      1.8135      1.9129      2.1178      2.4418    
  2.9058      3.5394      4.3788      5.4609      6.8135      8.4438      10.332      12.431      14.668      16.937    
  19.066      20.871      22.188      22.884      22.884      22.188      20.871      19.066      16.937      14.668    
  12.431      10.332      8.4438      6.8135      5.4610      4.3789      3.0010      2.4788      2.1047      1.8541    
  1.7101      1.6631      1.7101      1.8541      2.1047      2.4788      3.0009      3.7037      4.6238      5.7952    
  7.2375      8.9467      10.890      13.007      15.213      17.380      19.324      20.871      21.870      22.216    
  21.870      20.871      19.324      17.380      15.213      13.007      10.890      8.9467      7.2375      5.7952    
  4.6239      3.7037      2.5219      2.1032      1.8115      1.6275      1.5386      1.5386      1.6275      1.8115    
  2.1032      2.5219      3.0949      3.8556      4.8390      6.0730      7.5678      9.3067      11.245      13.309    
  15.401      17.380      19.066      20.298      20.949      20.949      20.298      19.066      17.380      15.401    
  13.309      11.245      9.3067      7.5678      6.0731      4.8391      3.8557      3.0950      2.1099      1.7830    
  1.5642      1.4388      1.3979      1.4388      1.5642      1.7830      2.1099      2.5662      3.1800      3.9835    
  5.0077      6.2727      7.7778      9.4947      11.366      13.309      15.213      16.937      18.314      19.205    
  19.513      19.205      18.314      16.937      15.213      13.309      11.366      9.4946      7.7778      6.2728    
  5.0078      3.9836      3.1800      2.5662      1.7657      1.5179      1.3617      1.2862      1.2862      1.3617    
  1.5179      1.7657      2.1211      2.6062      3.2481      4.0763      5.1156      6.3772      7.8499      9.4947    
  11.245      13.007      14.667      16.091      17.137      17.691      17.691      17.137      16.092      14.668    
  13.007      11.245      9.4946      7.8499      6.3773      5.1157      4.0764      3.2482      2.6062      2.1211    
  1.4859      1.3046      1.2007      1.1669      1.2007      1.3046      1.4859      1.7564      2.1328      2.6365    
  3.2923      4.1251      5.1527      6.3772      7.7778      9.3067      10.890      12.431      13.816      14.923    
  15.642      15.892      15.643      14.924      13.816      12.431      10.890      9.3067      7.7778      6.3773    
  5.1528      4.1252      3.2924      2.6365      2.1328      1.7564      1.2648      1.1383      1.0772      1.0772    
  1.1383      1.2648      1.4653      1.7522      2.1415      2.6528      3.3076      4.1251      5.1156      6.2727    
  7.5678      8.9467      10.332      11.629      12.731      13.537      13.963      13.963      13.537      12.731    
  11.629      10.332      8.9467      7.5678      6.2728      5.1157      4.1252      3.3077      2.6528      2.1414    
  1.7521      1.4653      1.0961      1.0137     0.98693      1.0137      1.0961      1.2399      1.4541      1.7507    
  2.1446      2.6528      3.2923      4.0763      5.0077      6.0731      7.2375      8.4439      9.6153      10.663    
  11.495      12.032      12.218      12.032      11.495      10.663      9.6153      8.4438      7.2375      6.0731    
  5.0078      4.0764      3.2924      2.6528      2.1446      1.7507      1.4540      1.2399     0.97332     0.92576    
 0.92575     0.97330      1.0719      1.2279      1.4505      1.7507      2.1414      2.6364      3.2481      3.9835    
  4.8390      5.7952      6.8135      7.8364      8.7920      9.6017      10.191      10.502      10.502      10.191    
  9.6017      8.7920      7.8364      6.8135      5.7952      4.8391      3.9836      3.2482      2.6365      2.1414    
  1.7507      1.4505      1.2279      1.0719     0.89047     0.86989     0.89045     0.95369      1.0640      1.2279    
  1.4541      1.7522      2.1328      2.6062      3.1799      3.8555      4.6238      5.4609      6.3269      7.1671    
  7.9171      8.5118      8.8945      9.0266      8.8945      8.5118      7.9171      7.1670      6.3270      5.4610    
  4.6239      3.8557      3.1800      2.6062      2.1328      1.7521      1.4540      1.2279      1.0640     0.95371    
 0.84284     0.84283     0.87894     0.95370      1.0719      1.2399      1.4654      1.7564      2.1211      2.5662    
  3.0949      3.7036      4.3788      5.0941      5.8103      6.4778      7.0424      7.4527      7.6688      7.6688    
  7.4527      7.0423      6.4778      5.8103      5.0942      4.3789      3.7037      3.0950      2.5662      2.1211    
  1.7564      1.4653      1.2399      1.0719     0.95371     0.87895     0.84284     0.86989     0.92576      1.0137    
  1.1383      1.3046      1.5179      1.7831      2.1032      2.4788      2.9057      3.3735      3.8638      4.3506    
  4.8012      5.1806      5.4556      5.6002      5.6002      5.4556      5.1807      4.8013      4.3506      3.8639    
  3.3735      2.9057      2.4788      2.1032      1.7830      1.5179      1.3046      1.1383      1.0137     0.92576    
 0.86989     0.84283     0.86989     0.90466     0.96484      1.0536      1.1747      1.3326      1.5314      1.7742    
  2.0622      2.3934      2.7614      3.1540      3.5528      3.9341      4.2709      4.5359      4.7056      4.7641    
  4.7056      4.5359      4.2709      3.9342      3.5528      3.1540      2.7614      2.3934      2.0621      1.7741    
  1.5314      1.3326      1.1747      1.0536     0.96484     0.90465     0.86988     0.85853     0.92576     0.96484    
  1.0260      1.1122      1.2267      1.3731      1.5545      1.7725      2.0268      2.3134      2.6244      2.9470    
  3.2641      3.5552      3.7986      3.9741      4.0661      4.0661      3.9741      3.7986      3.5552      3.2641    
  2.9470      2.6244      2.3134      2.0267      1.7725      1.5544      1.3731      1.2267      1.1122      1.0260    
 0.96483     0.92575     0.90674     0.90674      1.0137      1.0536      1.1122      1.1923      1.2969      1.4288    
  1.5901      1.7814      2.0009      2.2434      2.5004      2.7595      3.0054      3.2211      3.3900      3.4977    
  3.5348      3.4977      3.3900      3.2211      3.0054      2.7595      2.5004      2.2434      2.0008      1.7814    
  1.5901      1.4288      1.2969      1.1923      1.1122      1.0535      1.0137     0.99069     0.98316     0.99070    
  1.1383      1.1747      1.2267      1.2969      1.3879      1.5020      1.6407      1.8033      1.9872      2.1867    
  2.3932      2.5954      2.7803      2.9344      3.0452      3.1033      3.1032      3.0452      2.9343      2.7802    
  2.5953      2.3932      2.1867      1.9872      1.8033      1.6407      1.5021      1.3879      1.2969      1.2267    
  1.1747      1.1383      1.1153      1.1042      1.1042      1.1153      1.3046      1.3326      1.3731      1.4288    
  1.5020      1.5948      1.7077      1.8396      1.9872      2.1448      2.3044      2.4563      2.5897      2.6943    
  2.7610      2.7840      2.7610      2.6943      2.5897      2.4563      2.3044      2.1448      1.9872      1.8397    
  1.7077      1.5948      1.5021      1.4288      1.3731      1.3326      1.3046      1.2866      1.2766      1.2735    
  1.2766      1.2866      1.5179      1.5314      1.5545      1.5901      1.6407      1.7077      1.7914      1.8903    
  2.0009      2.1179      2.2344      2.3422      2.4328      2.4983      2.5328      2.5328      2.4983      2.4328    
  2.3421      2.2344      2.1179      2.0009      1.8903      1.7915      1.7077      1.6407      1.5901      1.5544    
  1.5314      1.5179      1.5112      1.5083      1.5075      1.5075      1.5083      1.5112      1.7831      1.7742    
  1.7725      1.7814      1.8033      1.8396      1.8903      1.9537      2.0268      2.1048      2.1819      2.2516    
  2.3073      2.3433      2.3558      2.3433      2.3073      2.2517      2.1819      2.1048      2.0267      1.9537    
  1.8903      1.8396      1.8033      1.7814      1.7725      1.7741      1.7830      1.7955      1.8076      1.8164    
  1.8196      1.8164      1.8076      1.7955      2.1032      2.0622      2.0268      2.0009      1.9872      1.9872    
  2.0009      2.0268      2.0622      2.1032      2.1451      2.1827      2.2110      2.2263      2.2263      2.2110    
  2.1827      2.1451      2.1032      2.0621      2.0267      2.0009      1.9872      1.9872      2.0008      2.0267    
  2.0621      2.1032      2.1451      2.1827      2.2110      2.2263      2.2263      2.2110      2.1827      2.1451    
  2.4788      2.3934      2.3134      2.2434      2.1867      2.1448      2.1179      2.1048      2.1032      2.1099    
  2.1211      2.1328      2.1414      2.1446      2.1415      2.1328      2.1211      2.1099      2.1032      2.1047    
  2.1178      2.1448      2.1867      2.2434      2.3134      2.3934      2.4788      2.5634      2.6402      2.7018    
  2.7417      2.7556      2.7417      2.7018      2.6402      2.5634      2.9057      2.7614      2.6244      2.5004    
  2.3932      2.3044      2.2344      2.1819      2.1451      2.1211      2.1069      2.0995      2.0964      2.0964    
  2.0995      2.1069      2.1211      2.1451      2.1819      2.2343      2.3044      2.3932      2.5004      2.6244    
  2.7614      2.9058      3.0496      3.1832      3.2962      3.3785      3.4219      3.4219      3.3785      3.2962    
  3.1832      3.0495      3.3735      3.1540      2.9470      2.7595      2.5954      2.4563      2.3422      2.2516    
  2.1827      2.1328      2.0995      2.0805      2.0744      2.0805      2.0995      2.1328      2.1826      2.2516    
  2.3421      2.4563      2.5954      2.7595      2.9471      3.1540      3.3736      3.5958      3.8082      3.9960    
  4.1441      4.2392      4.2720      4.2392      4.1441      3.9960      3.8082      3.5958      3.8638      3.5528    
  3.2641      3.0054      2.7803      2.5897      2.4328      2.3073      2.2110      2.1414      2.0964      2.0744    
  2.0744      2.0964      2.1414      2.2110      2.3073      2.4327      2.5897      2.7803      3.0054      3.2642    
  3.5528      3.8639      4.1855      4.5014      4.7919      5.0355      5.2117      5.3043      5.3043      5.2117    
  5.0355      4.7919      4.5014      4.1854      4.3506      3.9341      3.5552      3.2211      2.9344      2.6943    
  2.4983      2.3433      2.2263      2.1446      2.0964      2.0805      2.0964      2.1446      2.2262      2.3433    
  2.4983      2.6943      2.9344      3.2211      3.5552      3.9342      4.3506      4.7912      5.2362      5.6601    
  6.0337      6.3275      6.5156      6.5804      6.5156      6.3275      6.0338      5.6601      5.2362      4.7912    
  4.8012      4.2709      3.7986      3.3900      3.0452      2.7610      2.5328      2.3558      2.2263      2.1415    
  2.0995      2.0995      2.1414      2.2262      2.3557      2.5327      2.7610      3.0453      3.3900      3.7986    
  4.2710      4.8013      5.3760      5.9725      6.5597      7.0997      7.5522      7.8792      8.0508      8.0508    
  7.8792      7.5522      7.0997      6.5597      5.9725      5.3759      5.1806      4.5359      3.9741      3.4977    
  3.1033      2.7840      2.5328      2.3433      2.2110      2.1328      2.1069      2.1328      2.2110      2.3433    
  2.5327      2.7840      3.1033      3.4978      3.9741      4.5359      5.1807      5.8964      6.6594      7.4340    
  8.1740      8.8272      9.3411      9.6702      9.7835      9.6702      9.3410      8.8272      8.1740      7.4340    
  6.6594      5.8963      5.4556      4.7056      4.0661      3.5348      3.1032      2.7610      2.4983      2.3073    
  2.1827      2.1211      2.1211      2.1826      2.3073      2.4983      2.7610      3.1033      3.5349      4.0662    
  4.7056      5.4556      6.3081      7.2409      8.2160      9.1808      10.072      10.820      11.362      11.647    
  11.647      11.362      10.820      10.071      9.1808      8.2160      7.2409      6.3081      5.6002      4.7641    
  4.0661      3.4977      3.0452      2.6943      2.4328      2.2517      2.1451      2.1099      2.1451      2.2516    
  2.4327      2.6943      3.0453      3.4978      4.0662      4.7641      5.6002      6.5727      7.6639      8.8371    
  10.036      11.189      12.212      13.021      13.541      13.721      13.541      13.021      12.212      11.189    
  10.036      8.8370      7.6638      6.5726      5.6002      4.7056      3.9741      3.3900      2.9343      2.5897    
  2.3421      2.1819      2.1032      2.1032      2.1819      2.3421      2.5897      2.9344      3.3900      3.9741    
  4.7056      5.6002      6.6639      7.8868      9.2372      10.660      12.080      13.401      14.521      15.337    
  15.769      15.769      15.337      14.520      13.401      12.079      10.660      9.2371      7.8867      6.6639    
  5.4556      4.5359      3.7986      3.2211      2.7802      2.4563      2.2344      2.1048      2.0621      2.1047    
  2.2343      2.4563      2.7803      3.2211      3.7986      4.5359      5.4556      6.5727      7.8868      9.3754    
  10.990      12.655      14.273      15.724      16.884      17.637      17.898      17.637      16.884      15.724    
  14.272      12.655      10.990      9.3753      7.8867      6.5726      5.1807      4.2709      3.5552      3.0054    
  2.5953      2.3044      2.1179      2.0267      2.0267      2.1178      2.3044      2.5954      3.0054      3.5552    
  4.2710      5.1807      6.3081      7.6639      9.2372      10.990      12.854      14.735      16.507      18.028    
  19.150      19.745      19.746      19.150      18.028      16.507      14.734      12.854      10.990      9.2371    
  7.6638      6.3081      4.8013      3.9342      3.2641      2.7595      2.3932      2.1448      2.0009      1.9537    
  2.0009      2.1448      2.3932      2.7595      3.2642      3.9342      4.8013      5.8964      7.2409      8.8371    
  10.660      12.655      14.735      16.779      18.638      20.138      21.114      21.453      21.114      20.138    
  18.638      16.779      14.734      12.655      10.660      8.8370      7.2408      5.8964      4.3506      3.5528    
  2.9470      2.5004      2.1867      1.9872      1.8903      1.8903      1.9872      2.1867      2.5004      2.9471    
  3.5528      4.3506      5.3760      6.6594      8.2160      10.036      12.080      14.273      16.507      18.638    
  20.482      21.844      22.568      22.568      21.844      20.482      18.638      16.507      14.273      12.079    
  10.036      8.2160      6.6594      5.3760      3.8639      3.1540      2.6244      2.2434      1.9872      1.8397    
  1.7915      1.8396      1.9872      2.2434      2.6244      3.1540      3.8639      4.7912      5.9725      7.4340    
  9.1808      11.189      13.401      15.724      18.028      20.138      21.844      22.956      23.343      22.956    
  21.844      20.138      18.028      15.724      13.401      11.189      9.1807      7.4340      5.9726      4.7912    
  3.3735      2.7614      2.3134      2.0008      1.8033      1.7077      1.7077      1.8033      2.0008      2.3134    
  2.7614      3.3736      4.1855      5.2362      6.5597      8.1740      10.072      12.212      14.521      16.884    
  19.150      21.114      22.568      23.343      23.343      22.568      21.115      19.150      16.885      14.521    
  12.212      10.071      8.1740      6.5597      5.2363      4.1855      2.9057      2.3934      2.0267      1.7814    
  1.6407      1.5948      1.6407      1.7814      2.0267      2.3934      2.9058      3.5958      4.5014      5.6601    
  7.0997      8.8272      10.820      13.021      15.337      17.637      19.745      21.453      22.568      22.956    
  22.568      21.454      19.746      17.637      15.337      13.021      10.820      8.8272      7.0998      5.6602    
  4.5015      3.5959      2.4788      2.0621      1.7725      1.5901      1.5021      1.5021      1.5901      1.7725    
  2.0621      2.4788      3.0496      3.8082      4.7919      6.0337      7.5522      9.3411      11.362      13.541    
  15.769      17.898      19.746      21.114      21.844      21.844      21.115      19.746      17.898      15.769    
  13.541      11.362      9.3410      7.5523      6.0339      4.7921      3.8083      3.0495      2.1032      1.7741    
  1.5544      1.4288      1.3879      1.4288      1.5544      1.7741      2.1032      2.5634      3.1832      3.9960    
  5.0355      6.3275      7.8792      9.6702      11.647      13.721      15.769      17.637      19.150      20.138    
  20.482      20.138      19.150      17.637      15.769      13.721      11.647      9.6702      7.8792      6.3276    
  5.0357      3.9961      3.1832      2.5634      1.7830      1.5314      1.3731      1.2969      1.2969      1.3731    
  1.5314      1.7830      2.1451      2.6402      3.2962      4.1441      5.2117      6.5156      8.0508      9.7835    
  11.647      13.541      15.337      16.884      18.028      18.638      18.638      18.028      16.885      15.337    
  13.541      11.647      9.7835      8.0509      6.5157      5.2119      4.1442      3.2962      2.6401      2.1451    
  1.5179      1.3326      1.2267      1.1923      1.2267      1.3326      1.5179      1.7955      2.1827      2.7018    
  3.3785      4.2392      5.3043      6.5804      8.0508      9.6702      11.362      13.021      14.520      15.724    
  16.507      16.779      16.507      15.724      14.521      13.021      11.362      9.6702      8.0509      6.5805    
  5.3045      4.2392      3.3785      2.7017      2.1826      1.7954      1.3046      1.1747      1.1122      1.1122    
  1.1747      1.3046      1.5112      1.8076      2.2110      2.7417      3.4219      4.2720      5.3043      6.5156    
  7.8792      9.3410      10.820      12.212      13.401      14.272      14.734      14.734      14.273      13.401    
  12.212      10.820      9.3410      7.8792      6.5157      5.3045      4.2720      3.4219      2.7417      2.2110    
  1.8076      1.5111      1.1383      1.0536      1.0260      1.0535      1.1383      1.2866      1.5083      1.8164    
  2.2263      2.7556      3.4219      4.2392      5.2117      6.3275      7.5522      8.8272      10.071      11.189    
  12.079      12.655      12.854      12.655      12.079      11.189      10.071      8.8272      7.5523      6.3276    
  5.2119      4.2392      3.4219      2.7555      2.2262      1.8163      1.5083      1.2866      1.0137     0.96484    