unknown system                          
   1.00000000000000     
     0.000000    2.761708    2.761708
     2.761708    0.000000    2.761708
     2.761708    2.761708    0.000000
   Si
     2
Direct
  0.500000  0.500000  0.500000
  0.750000  0.750000  0.750000
 
   36   36   36
 0.82732229140E+00 0.84283593377E+00 0.89046351424E+00 0.97331509181E+00 0.10961459175E+01
 0.12648432503E+01 0.14858776110E+01 0.17657025139E+01 0.21099191833E+01 0.25219306345E+01
 0.30009203969E+01 0.35393353132E+01 0.41205133072E+01 0.47174343792E+01 0.52935326601E+01
 0.58060077270E+01 0.62112997669E+01 0.64716786592E+01 0.65614983028E+01 0.64716704883E+01
 0.62112904706E+01 0.58060133639E+01 0.52935716303E+01 0.47175108960E+01 0.41206074009E+01
 0.35394129369E+01 0.30009562959E+01 0.25219233848E+01 0.21098870064E+01 0.17656676698E+01
 0.14858537264E+01 0.12648327717E+01 0.10961448491E+01 0.97331834807E+00 0.89046745781E+00
 0.84283842624E+00 0.84283593377E+00 0.86989315250E+00 0.92575924199E+00 0.10137369824E+01
 0.11382998489E+01 0.13046070923E+01 0.15179471042E+01 0.17830603093E+01 0.21032023556E+01
 0.24788051904E+01 0.29057447199E+01 0.33735055814E+01 0.38638272802E+01 0.43505524458E+01
 0.48012405452E+01 0.51806506902E+01 0.54555958767E+01 0.56001739706E+01 0.56001747457E+01
 0.54555996165E+01 0.51806642447E+01 0.48012749942E+01 0.43506100395E+01 0.38638904656E+01
 0.33735460991E+01 0.29057457730E+01 0.24787726283E+01 0.21031561091E+01 0.17830196355E+01
 0.15179225108E+01 0.13045992494E+01 0.11383018252E+01 0.10137394566E+01 0.92575713242E+00
 0.86988826530E+00 0.84283342889E+00 0.89046351424E+00 0.92575924199E+00 0.98692819517E+00
 0.10772221839E+01 0.12006788071E+01 0.13616553449E+01 0.15642536883E+01 0.18115828947E+01
 0.21047828292E+01 0.24417920734E+01 0.28159963922E+01 0.32150834055E+01 0.36205630550E+01
 0.40084077565E+01 0.43510707114E+01 0.46207741475E+01 0.47935314256E+01 0.48530442515E+01
 0.47935350733E+01 0.46207840896E+01 0.43510908964E+01 0.40084366107E+01 0.36205873471E+01
 0.32150846931E+01 0.28159669092E+01 0.24417418836E+01 0.21047308250E+01 0.18115441629E+01
 0.15642349212E+01 0.13616555963E+01 0.12006898793E+01 0.10772315146E+01 0.98692698317E+00
 0.92574906722E+00 0.89045409277E+00 0.87893662785E+00 0.97331509181E+00 0.10137369824E+01
 0.10772221839E+01 0.11668514381E+01 0.12861728013E+01 0.14387392965E+01 0.16275152677E+01
 0.18541175257E+01 0.21178836351E+01 0.24148435479E+01 0.27367903161E+01 0.30707416124E+01
 0.33991039352E+01 0.37007746870E+01 0.39532409074E+01 0.41354681538E+01 0.42310749482E+01
 0.42310747292E+01 0.41354691368E+01 0.39532448044E+01 0.37007777127E+01 0.33990965573E+01
 0.30707160339E+01 0.27367485464E+01 0.24147970946E+01 0.21178456794E+01 0.18540965032E+01
 0.16275139731E+01 0.14387553167E+01 0.12861973457E+01 0.11668711576E+01 0.10772269265E+01
 0.10137271864E+01 0.97330105574E+00 0.95369038456E+00 0.95369675174E+00 0.10961459175E+01
 0.11382998489E+01 0.12006788071E+01 0.12861728013E+01 0.13978559055E+01 0.15385198044E+01
 0.17100818079E+01 0.19128666630E+01 0.21448069225E+01 0.24006787245E+01 0.26715649293E+01
 0.29447698352E+01 0.32043737398E+01 0.34325233864E+01 0.36114152841E+01 0.37257322442E+01
 0.37650671426E+01 0.37257290403E+01 0.36114101611E+01 0.34325136545E+01 0.32043534048E+01
 0.29447381600E+01 0.26715308592E+01 0.24006542014E+01 0.21447983099E+01 0.19128742730E+01
 0.17101039043E+01 0.15385526425E+01 0.13978908076E+01 0.12861979573E+01 0.12006865034E+01
 0.11382917091E+01 0.10961311957E+01 0.10718618364E+01 0.10639536738E+01 0.10718724938E+01
 0.12648432503E+01 0.13046070923E+01 0.13616553449E+01 0.14387392965E+01 0.15385198044E+01
 0.16631072345E+01 0.18135151691E+01 0.19890520323E+01 0.21867124323E+01 0.24006786577E+01
 0.26220879873E+01 0.28392270446E+01 0.30382673117E+01 0.32045731922E+01 0.33244947353E+01
 0.33873828772E+01 0.33873813749E+01 0.33244901202E+01 0.32045636267E+01 0.30382498587E+01
 0.28392041604E+01 0.26220704809E+01 0.24006777073E+01 0.21867303021E+01 0.19890833170E+01
 0.18135537786E+01 0.16631476059E+01 0.15385537796E+01 0.14387582929E+01 0.13616568834E+01
 0.13045965347E+01 0.12648290152E+01 0.12398909330E+01 0.12279246029E+01 0.12279287631E+01
 0.12399021024E+01 0.14858776110E+01 0.15179471042E+01 0.15642536883E+01 0.16275152677E+01
 0.17100818079E+01 0.18135151691E+01 0.19381420559E+01 0.20826031688E+01 0.22434459342E+01
 0.24148435299E+01 0.25885586899E+01 0.27542768323E+01 0.29003952284E+01 0.30152748928E+01
 0.30888314281E+01 0.31141691595E+01 0.30888314131E+01 0.30152720548E+01 0.29003869588E+01
 0.27542657089E+01 0.25885537537E+01 0.24148538159E+01 0.22434727965E+01 0.20826404222E+01
 0.19381816566E+01 0.18135494227E+01 0.17101024283E+01 0.16275168231E+01 0.15642394891E+01
 0.15179279041E+01 0.14858628218E+01 0.14653438636E+01 0.14540726061E+01 0.14504990883E+01
 0.14540756642E+01 0.14653518039E+01 0.17657025139E+01 0.17830603093E+01 0.18115828947E+01
 0.18541175257E+01 0.19128666630E+01 0.19890520323E+01 0.20826031688E+01 0.21918725460E+01
 0.23134012982E+01 0.24417922802E+01 0.25697861752E+01 0.26886545530E+01 0.27889906546E+01
 0.28618798677E+01 0.29002791705E+01 0.29002817203E+01 0.28618846464E+01 0.27889928151E+01
 0.26886536900E+01 0.25697872148E+01 0.24418005022E+01 0.23134181497E+01 0.21918956803E+01
 0.20826275056E+01 0.19890693002E+01 0.19128672289E+01 0.18540974158E+01 0.18115496333E+01
 0.17830291582E+01 0.17656851050E+01 0.17563894699E+01 0.17521771007E+01 0.17507142567E+01
 0.17507120370E+01 0.17521735490E+01 0.17563925833E+01 0.21099191833E+01 0.21032023556E+01
 0.21047828292E+01 0.21178836351E+01 0.21448069225E+01 0.21867124323E+01 0.22434459342E+01
 0.23134012982E+01 0.23934254577E+01 0.24788054289E+01 0.25634208910E+01 0.26401726434E+01
 0.27017543918E+01 0.27417107838E+01 0.27555683094E+01 0.27417202238E+01 0.27017669327E+01
 0.26401825460E+01 0.25634263902E+01 0.24788061237E+01 0.23934215024E+01 0.23133955441E+01
 0.22434413776E+01 0.21867053384E+01 0.21447874600E+01 0.21178471136E+01 0.21047378995E+01
 0.21031655216E+01 0.21099020259E+01 0.21211081624E+01 0.21328017869E+01 0.21414563740E+01
 0.21446288027E+01 0.21414462841E+01 0.21327895919E+01 0.21211058798E+01 0.25219306345E+01
 0.24788051904E+01 0.24417920734E+01 0.24148435479E+01 0.24006787245E+01 0.24006786577E+01
 0.24148435299E+01 0.24417922802E+01 0.24788054289E+01 0.25219307329E+01 0.25662162137E+01
 0.26061642259E+01 0.26364466640E+01 0.26527885484E+01 0.26527964530E+01 0.26364660260E+01
 0.26061851014E+01 0.25662279093E+01 0.25219244684E+01 0.24787782514E+01 0.24417514813E+01
 0.24148023287E+01 0.24006433376E+01 0.24006440321E+01 0.24148039765E+01 0.24417532918E+01
 0.24787797729E+01 0.25219254944E+01 0.25662281941E+01 0.26061846403E+01 0.26364652670E+01
 0.26527958022E+01 0.26527879564E+01 0.26364460135E+01 0.26061637243E+01 0.25662160288E+01
 0.30009203969E+01 0.29057447199E+01 0.28159963922E+01 0.27367903161E+01 0.26715649293E+01
 0.26220879873E+01 0.25885586899E+01 0.25697861752E+01 0.25634208910E+01 0.25662162137E+01
 0.25743460438E+01 0.25838452279E+01 0.25911928766E+01 0.25939418400E+01 0.25912110595E+01
 0.25838721039E+01 0.25743641499E+01 0.25662063777E+01 0.25633740640E+01 0.25697126328E+01
 0.25884823964E+01 0.26220281802E+01 0.26715247683E+01 0.27367645860E+01 0.28159845839E+01
 0.29057504250E+01 0.30009418408E+01 0.30949178184E+01 0.31799671399E+01 0.32481244639E+01
 0.32923186129E+01 0.33076330195E+01 0.32923043578E+01 0.32481008551E+01 0.31799388579E+01
 0.30948891082E+01 0.35393353132E+01 0.33735055814E+01 0.32150834055E+01 0.30707416124E+01
 0.29447698352E+01 0.28392270446E+01 0.27542768323E+01 0.26886545530E+01 0.26401726434E+01
 0.26061642259E+01 0.25838452279E+01 0.25706543812E+01 0.25646079317E+01 0.25646177735E+01
 0.25706784843E+01 0.25838656428E+01 0.26061542393E+01 0.26401145861E+01 0.26885582244E+01
 0.27541758476E+01 0.28391539705E+01 0.29447366051E+01 0.30707425827E+01 0.32151095709E+01
 0.33735496320E+01 0.35393867571E+01 0.37036568799E+01 0.38555771904E+01 0.39834883895E+01
 0.40762820702E+01 0.41251336119E+01 0.41251307155E+01 0.40762730985E+01 0.39834708446E+01
 0.38555461844E+01 0.37036114844E+01 0.41205133072E+01 0.38638272802E+01 0.36205630550E+01
 0.33991039352E+01 0.32043737398E+01 0.30382673117E+01 0.29003952284E+01 0.27889906546E+01
 0.27017543918E+01 0.26364466640E+01 0.25911928766E+01 0.25646079317E+01 0.25558467651E+01
 0.25646230933E+01 0.25912094415E+01 0.26364365990E+01 0.27016926077E+01 0.27888829610E+01
 0.29002821475E+01 0.30381933613E+01 0.32043562833E+01 0.33991326444E+01 0.36206193853E+01
 0.38638955937E+01 0.41205791758E+01 0.43788172444E+01 0.46238151542E+01 0.48389830202E+01
 0.50077027206E+01 0.51155652692E+01 0.51526971595E+01 0.51155736290E+01 0.50077116257E+01
 0.48389803310E+01 0.46237903967E+01 0.43787679376E+01 0.47174343792E+01 0.43505524458E+01
 0.40084077565E+01 0.37007746870E+01 0.34325233864E+01 0.32045731922E+01 0.30152748928E+01
 0.28618798677E+01 0.27417107838E+01 0.26527885484E+01 0.25939418400E+01 0.25646177735E+01
 0.25646230933E+01 0.25939498760E+01 0.26527749527E+01 0.27416474292E+01 0.28617669859E+01
 0.30151559824E+01 0.32045032662E+01 0.34325230785E+01 0.37008231480E+01 0.40084734964E+01
 0.43506165701E+01 0.47174874466E+01 0.50941272992E+01 0.54609465507E+01 0.57951669019E+01
 0.60730498173E+01 0.62727155846E+01 0.63772068653E+01 0.63772175271E+01 0.62727417347E+01
 0.60730777024E+01 0.57951819632E+01 0.54609385157E+01 0.50940938305E+01 0.52935326601E+01
 0.48012405452E+01 0.43510707114E+01 0.39532409074E+01 0.36114152841E+01 0.33244947353E+01
 0.30888314281E+01 0.29002791705E+01 0.27555683094E+01 0.26527964530E+01 0.25912110595E+01
 0.25706784843E+01 0.25912094415E+01 0.26527749527E+01 0.27555010870E+01 0.29001629507E+01
 0.30887082585E+01 0.33244262960E+01 0.36114264962E+01 0.39533005392E+01 0.43511305845E+01
 0.48012780754E+01 0.52935503946E+01 0.58103178328E+01 0.63269310024E+01 0.68134609621E+01
 0.72375119910E+01 0.75677516143E+01 0.77777888686E+01 0.78498959809E+01 0.77778086918E+01
 0.75677844326E+01 0.72375478122E+01 0.68134895569E+01 0.63269447636E+01 0.58103153551E+01
 0.58060077270E+01 0.51806506902E+01 0.46207741475E+01 0.41354681538E+01 0.37257322442E+01
 0.33873828772E+01 0.31141691595E+01 0.29002817203E+01 0.27417202238E+01 0.26364660260E+01
 0.25838721039E+01 0.25838656428E+01 0.26364365990E+01 0.27416474292E+01 0.29001629507E+01
 0.31140440707E+01 0.33873146608E+01 0.37257494960E+01 0.41355341836E+01 0.46208261167E+01
 0.51806590018E+01 0.58059855709E+01 0.64777956234E+01 0.71670242565E+01 0.78364008653E+01
 0.84438322344E+01 0.89467167698E+01 0.93067278610E+01 0.94946644674E+01 0.94946641350E+01
 0.93067303183E+01 0.89467292173E+01 0.84438577370E+01 0.78364339317E+01 0.71670578136E+01
 0.64778271668E+01 0.62112997669E+01 0.54555958767E+01 0.47935314256E+01 0.42310749482E+01
 0.37650671426E+01 0.33873813749E+01 0.30888314131E+01 0.28618846464E+01 0.27017669327E+01
 0.26061851014E+01 0.25743641499E+01 0.26061542393E+01 0.27016926077E+01 0.28617669859E+01
 0.30887082585E+01 0.33873146608E+01 0.37650877975E+01 0.42311456090E+01 0.47935804350E+01
 0.54555857841E+01 0.62112489300E+01 0.70423061507E+01 0.79170691787E+01 0.87919871314E+01
 0.96153501299E+01 0.10332224896E+02 0.10890039163E+02 0.11244635830E+02 0.11366318350E+02
 0.11244590885E+02 0.10889978676E+02 0.10332185388E+02 0.96153483927E+01 0.87920153090E+01
 0.79171148505E+01 0.70423627836E+01 0.64716786592E+01 0.56001739706E+01 0.48530442515E+01
 0.42310747292E+01 0.37257290403E+01 0.33244901202E+01 0.30152720548E+01 0.27889928151E+01
 0.26401825460E+01 0.25662279093E+01 0.25662063777E+01 0.26401145861E+01 0.27888829610E+01
 0.30151559824E+01 0.33244262960E+01 0.37257494960E+01 0.42311456090E+01 0.48530925763E+01
 0.56001571526E+01 0.64716152236E+01 0.74526338958E+01 0.85117673776E+01 0.96017233680E+01
 0.10662943496E+02 0.11628711067E+02 0.12431003989E+02 0.13007361722E+02 0.13309010050E+02
 0.13308953644E+02 0.13007221622E+02 0.12430849195E+02 0.11628605605E+02 0.10662908110E+02
 0.96017400406E+01 0.85118149939E+01 0.74527013539E+01 0.65614983028E+01 0.56001747457E+01
 0.47935350733E+01 0.41354691368E+01 0.36114101611E+01 0.32045636267E+01 0.29003869588E+01
 0.26886536900E+01 0.25634263902E+01 0.25219244684E+01 0.25633740640E+01 0.26885582244E+01
 0.29002821475E+01 0.32045032662E+01 0.36114264962E+01 0.41355341836E+01 0.47935804350E+01
 0.56001571526E+01 0.65614349980E+01 0.76687748170E+01 0.88944804240E+01 0.10191288772E+02
 0.11495354166E+02 0.12730987571E+02 0.13815888275E+02 0.14667636386E+02 0.15213186353E+02
 0.15401101599E+02 0.15213037322E+02 0.14667399505E+02 0.13815657037E+02 0.12730834599E+02
 0.11495292777E+02 0.10191289975E+02 0.88945187374E+01 0.76688387964E+01 0.64716704883E+01
 0.54555996165E+01 0.46207840896E+01 0.39532448044E+01 0.34325136545E+01 0.30382498587E+01
 0.27542657089E+01 0.25697872148E+01 0.24788061237E+01 0.24787782514E+01 0.25697126328E+01
 0.27541758476E+01 0.30381933613E+01 0.34325230785E+01 0.39533005392E+01 0.46208261167E+01
 0.54555857841E+01 0.64716152236E+01 0.76687748170E+01 0.90266188112E+01 0.10502221798E+02
 0.12032204141E+02 0.13536795425E+02 0.14923704418E+02 0.16091699808E+02 0.16936759359E+02
 0.17379692373E+02 0.17379616248E+02 0.16936552774E+02 0.16091428024E+02 0.14923455868E+02
 0.13536631968E+02 0.12032128513E+02 0.10502203314E+02 0.90266387431E+01 0.76688262083E+01
 0.62112904706E+01 0.51806642447E+01 0.43510908964E+01 0.37007777127E+01 0.32043534048E+01
 0.28392041604E+01 0.25885537537E+01 0.24418005022E+01 0.23934215024E+01 0.24417514813E+01
 0.25884823964E+01 0.28391539705E+01 0.32043562833E+01 0.37008231480E+01 0.43511305845E+01
 0.51806590018E+01 0.62112489300E+01 0.74526338958E+01 0.88944804240E+01 0.10502221798E+02
 0.12217813137E+02 0.13963167449E+02 0.15642667123E+02 0.17137626420E+02 0.18314314604E+02
 0.19065981978E+02 0.19324390154E+02 0.19065882102E+02 0.18314125327E+02 0.17137390369E+02
 0.15642451092E+02 0.13963017225E+02 0.12217728984E+02 0.10502183956E+02 0.88944820510E+01
 0.74526702533E+01 0.58060133639E+01 0.48012749942E+01 0.40084366107E+01 0.33990965573E+01
 0.29447381600E+01 0.26220704809E+01 0.24148538159E+01 0.23134181497E+01 0.23133955441E+01
 0.24148023287E+01 0.26220281802E+01 0.29447366051E+01 0.33991326444E+01 0.40084734964E+01
 0.48012780754E+01 0.58059855709E+01 0.70423061507E+01 0.85117673776E+01 0.10191288772E+02
 0.12032204141E+02 0.13963167449E+02 0.15892091896E+02 0.17691536206E+02 0.19204851155E+02
 0.20297811301E+02 0.20871234917E+02 0.20871219430E+02 0.20297748385E+02 0.19204720044E+02
 0.17691355948E+02 0.15891914572E+02 0.13963032421E+02 0.12032117048E+02 0.10191241537E+02
 0.85117593357E+01 0.70423307443E+01 0.52935716303E+01 0.43506100395E+01 0.36205873471E+01
 0.30707160339E+01 0.26715308592E+01 0.24006777073E+01 0.22434727965E+01 0.21918956803E+01
 0.22434413776E+01 0.24006433376E+01 0.26715247683E+01 0.30707425827E+01 0.36206193853E+01
 0.43506165701E+01 0.52935503946E+01 0.64777956234E+01 0.79170691787E+01 0.96017233680E+01
 0.11495354166E+02 0.13536795425E+02 0.15642667123E+02 0.17691536206E+02 0.19513038452E+02
 0.20949063290E+02 0.21870181535E+02 0.22187892297E+02 0.21870202782E+02 0.20949051085E+02
 0.19512949287E+02 0.17691387418E+02 0.15642513270E+02 0.13536674863E+02 0.11495273738E+02
 0.96016791783E+01 0.79170623139E+01 0.64778170405E+01 0.47175108960E+01 0.38638904656E+01
 0.32150846931E+01 0.27367485464E+01 0.24006542014E+01 0.21867303021E+01 0.20826404222E+01
 0.20826275056E+01 0.21867053384E+01 0.24006440321E+01 0.27367645860E+01 0.32151095709E+01
 0.38638955937E+01 0.47174874466E+01 0.58103178328E+01 0.71670242565E+01 0.87919871314E+01
 0.10662943496E+02 0.12730987571E+02 0.14923704418E+02 0.17137626420E+02 0.19204851155E+02
 0.20949063290E+02 0.22215986181E+02 0.22884090799E+02 0.22884129938E+02 0.22216056507E+02
 0.20949076840E+02 0.19204770539E+02 0.17137490462E+02 0.14923571380E+02 0.12730885398E+02
 0.10662874011E+02 0.87919523599E+01 0.71670286309E+01 0.58103474705E+01 0.41206074009E+01
 0.33735460991E+01 0.28159669092E+01 0.24147970946E+01 0.21447983099E+01 0.19890833170E+01
 0.19381816566E+01 0.19890693002E+01 0.21447874600E+01 0.24148039765E+01 0.28159845839E+01
 0.33735496320E+01 0.41205791758E+01 0.50941272992E+01 0.63269310024E+01 0.78364008653E+01
 0.96153501299E+01 0.11628711067E+02 0.13815888275E+02 0.16091699808E+02 0.18314314604E+02
 0.20297811301E+02 0.21870181535E+02 0.22884090799E+02 0.23234945877E+02 0.22884185449E+02
 0.21870276698E+02 0.20297820817E+02 0.18314236304E+02 0.16091587963E+02 0.13815783128E+02
 0.11628623709E+02 0.96152890112E+01 0.78363835701E+01 0.63269599939E+01 0.50941743698E+01
 0.35394129369E+01 0.29057457730E+01 0.24417418836E+01 0.21178456794E+01 0.19128742730E+01
 0.18135537786E+01 0.18135494227E+01 0.19128672289E+01 0.21178471136E+01 0.24417532918E+01
 0.29057504250E+01 0.35393867571E+01 0.43788172444E+01 0.54609465507E+01 0.68134609621E+01
 0.84438322344E+01 0.10332224896E+02 0.12431003989E+02 0.14667636386E+02 0.16936759359E+02
 0.19065981978E+02 0.20871234917E+02 0.22187892297E+02 0.22884129938E+02 0.22884185449E+02
 0.22188008429E+02 0.20871317717E+02 0.19065987481E+02 0.16936710232E+02 0.14667564152E+02
 0.12430920226E+02 0.10332145305E+02 0.84437909735E+01 0.68134823193E+01 0.54610114494E+01
 0.43788786825E+01 0.30009562959E+01 0.24787726283E+01 0.21047308250E+01 0.18540965032E+01
 0.17101039043E+01 0.16631476059E+01 0.17101024283E+01 0.18540974158E+01 0.21047378995E+01
 0.24787797729E+01 0.30009418408E+01 0.37036568799E+01 0.46238151542E+01 0.57951669019E+01
 0.72375119910E+01 0.89467167698E+01 0.10890039163E+02 0.13007361722E+02 0.15213186353E+02
 0.17379692373E+02 0.19324390154E+02 0.20871219430E+02 0.21870202782E+02 0.22216056507E+02
 0.21870276698E+02 0.20871317717E+02 0.19324465322E+02 0.17379730309E+02 0.15213185400E+02
 0.13007316283E+02 0.10889963969E+02 0.89466600618E+01 0.72375226784E+01 0.57952436751E+01
 0.46239071493E+01 0.37037147940E+01 0.25219233848E+01 0.21031561091E+01 0.18115441629E+01
 0.16275139731E+01 0.15385526425E+01 0.15385537796E+01 0.16275168231E+01 0.18115496333E+01
 0.21031655216E+01 0.25219254944E+01 0.30949178184E+01 0.38555771904E+01 0.48389830202E+01
 0.60730498173E+01 0.75677516143E+01 0.93067278610E+01 0.11244635830E+02 0.13309010050E+02
 0.15401101599E+02 0.17379616248E+02 0.19065882102E+02 0.20297748385E+02 0.20949051085E+02
 0.20949076840E+02 0.20297820817E+02 0.19065987481E+02 0.17379730309E+02 0.15401186033E+02
 0.13309027769E+02 0.11244589010E+02 0.93066708294E+01 0.75677530809E+01 0.60731307139E+01
 0.48390982476E+01 0.38556639632E+01 0.30949507714E+01 0.21098870064E+01 0.17830196355E+01
 0.15642349212E+01 0.14387553167E+01 0.13978908076E+01 0.14387582929E+01 0.15642394891E+01
 0.17830291582E+01 0.21099020259E+01 0.25662281941E+01 0.31799671399E+01 0.39834883895E+01
 0.50077027206E+01 0.62727155846E+01 0.77777888686E+01 0.94946644674E+01 0.11366318350E+02
 0.13308953644E+02 0.15213037322E+02 0.16936552774E+02 0.18314125327E+02 0.19204720044E+02
 0.19512949287E+02 0.19204770539E+02 0.18314236304E+02 0.16936710232E+02 0.15213185400E+02
 0.13309027769E+02 0.11366303962E+02 0.94946147342E+01 0.77777827592E+01 0.62727911249E+01
 0.50078269950E+01 0.39835943340E+01 0.31800142482E+01 0.25662272494E+01 0.17656676698E+01
 0.15179225108E+01 0.13616555963E+01 0.12861973457E+01 0.12861979573E+01 0.13616568834E+01
 0.15179279041E+01 0.17656851050E+01 0.21211081624E+01 0.26061846403E+01 0.32481244639E+01
 0.40762820702E+01 0.51155652692E+01 0.63772068653E+01 0.78498959809E+01 0.94946641350E+01
 0.11244590885E+02 0.13007221622E+02 0.14667399505E+02 0.16091428024E+02 0.17137390369E+02
 0.17691355948E+02 0.17691387418E+02 0.17137490462E+02 0.16091587963E+02 0.14667564152E+02
 0.13007316283E+02 0.11244589010E+02 0.94946147342E+01 0.78498808415E+01 0.63772712735E+01
 0.51156856924E+01 0.40763946411E+01 0.32481800573E+01 0.26061827845E+01 0.21210834949E+01
 0.14858537264E+01 0.13045992494E+01 0.12006898793E+01 0.11668711576E+01 0.12006865034E+01
 0.13045965347E+01 0.14858628218E+01 0.17563894699E+01 0.21328017869E+01 0.26364652670E+01
 0.32923186129E+01 0.41251336119E+01 0.51526971595E+01 0.63772175271E+01 0.77778086918E+01
 0.93067303183E+01 0.10889978676E+02 0.12430849195E+02 0.13815657037E+02 0.14923455868E+02
 0.15642451092E+02 0.15891914572E+02 0.15642513270E+02 0.14923571380E+02 0.13815783128E+02
 0.12430920226E+02 0.10889963969E+02 0.93066708294E+01 0.77777827592E+01 0.63772712735E+01
 0.51528109671E+01 0.41252473469E+01 0.32923804365E+01 0.26364650281E+01 0.21327688339E+01
 0.17563608931E+01 0.12648327717E+01 0.11383018252E+01 0.10772315146E+01 0.10772269265E+01
 0.11382917091E+01 0.12648290152E+01 0.14653438636E+01 0.17521771007E+01 0.21414563740E+01
 0.26527958022E+01 0.33076330195E+01 0.41251307155E+01 0.51155736290E+01 0.62727417347E+01
 0.75677844326E+01 0.89467292173E+01 0.10332185388E+02 0.11628605605E+02 0.12730834599E+02
 0.13536631968E+02 0.13963017225E+02 0.13963032421E+02 0.13536674863E+02 0.12730885398E+02
 0.11628623709E+02 0.10332145305E+02 0.89466600618E+01 0.75677530809E+01 0.62727911249E+01
 0.51156856924E+01 0.41252473469E+01 0.33077022620E+01 0.26528021044E+01 0.21414217199E+01
 0.17521388675E+01 0.14653268135E+01 0.10961448491E+01 0.10137394566E+01 0.98692698317E+00
 0.10137271864E+01 0.10961311957E+01 0.12398909330E+01 0.14540726061E+01 0.17507142567E+01
 0.21446288027E+01 0.26527879564E+01 0.32923043578E+01 0.40762730985E+01 0.50077116257E+01
 0.60730777024E+01 0.72375478122E+01 0.84438577370E+01 0.96153483927E+01 0.10662908110E+02
 0.11495292777E+02 0.12032128513E+02 0.12217728984E+02 0.12032117048E+02 0.11495273738E+02
 0.10662874011E+02 0.96152890112E+01 0.84437909735E+01 0.72375226784E+01 0.60731307139E+01
 0.50078269950E+01 0.40763946411E+01 0.32923804365E+01 0.26528021044E+01 0.21445984715E+01
 0.17506721295E+01 0.14540463542E+01 0.12398894988E+01 0.97331834807E+00 0.92575713242E+00
 0.92574906722E+00 0.97330105574E+00 0.10718618364E+01 0.12279246029E+01 0.14504990883E+01
 0.17507120370E+01 0.21414462841E+01 0.26364460135E+01 0.32481008551E+01 0.39834708446E+01
 0.48389803310E+01 0.57951819632E+01 0.68134895569E+01 0.78364339317E+01 0.87920153090E+01
 0.96017400406E+01 0.10191289975E+02 0.10502203314E+02 0.10502183956E+02 0.10191241537E+02
 0.96016791783E+01 0.87919523599E+01 0.78363835701E+01 0.68134823193E+01 0.57952436751E+01
 0.48390982476E+01 0.39835943340E+01 0.32481800573E+01 0.26364650281E+01 0.21414217199E+01
 0.17506721295E+01 0.14504679621E+01 0.12279151249E+01 0.10718725089E+01 0.89046745781E+00
 0.86988826530E+00 0.89045409277E+00 0.95369038456E+00 0.10639536738E+01 0.12279287631E+01
 0.14540756642E+01 0.17521735490E+01 0.21327895919E+01 0.26061637243E+01 0.31799388579E+01
 0.38555461844E+01 0.46237903967E+01 0.54609385157E+01 0.63269447636E+01 0.71670578136E+01
 0.79171148505E+01 0.85118149939E+01 0.88945187374E+01 0.90266387431E+01 0.88944820510E+01
 0.85117593357E+01 0.79170623139E+01 0.71670286309E+01 0.63269599939E+01 0.54610114494E+01
 0.46239071493E+01 0.38556639632E+01 0.31800142482E+01 0.26061827845E+01 0.21327688339E+01
 0.17521388675E+01 0.14540463542E+01 0.12279151249E+01 0.10639580697E+01 0.95370600742E+00
 0.84283842624E+00 0.84283342889E+00 0.87893662785E+00 0.95369675174E+00 0.10718724938E+01
 0.12399021024E+01 0.14653518039E+01 0.17563925833E+01 0.21211058798E+01 0.25662160288E+01
 0.30948891082E+01 0.37036114844E+01 0.43787679376E+01 0.50940938305E+01 0.58103153551E+01
 0.64778271668E+01 0.70423627836E+01 0.74527013539E+01 0.76688387964E+01 0.76688262083E+01
 0.74526702533E+01 0.70423307443E+01 0.64778170405E+01 0.58103474705E+01 0.50941743698E+01
 0.43788786825E+01 0.37037147940E+01 0.30949507714E+01 0.25662272494E+01 0.21210834949E+01
 0.17563608931E+01 0.14653268135E+01 0.12398894988E+01 0.10718725089E+01 0.95370600742E+00
 0.87894789404E+00 0.84283614695E+00 0.86989324537E+00 0.92575937650E+00 0.10137371509E+01
 0.11382999212E+01 0.13046070708E+01 0.15179471149E+01 0.17830603673E+01 0.21032023743E+01
 0.24788051997E+01 0.29057448307E+01 0.33735057364E+01 0.38638272649E+01 0.43505521339E+01
 0.48012399347E+01 0.51806497667E+01 0.54555947229E+01 0.56001729952E+01 0.56001745008E+01
 0.54556002893E+01 0.51806654608E+01 0.48012760853E+01 0.43506103476E+01 0.38638895445E+01
 0.33735439978E+01 0.29057431906E+01 0.24787705380E+01 0.21031551266E+01 0.17830198216E+01
 0.15179236376E+01 0.13046009760E+01 0.11383036759E+01 0.10137409790E+01 0.92575818038E+00
 0.86988896198E+00 0.84283387405E+00 0.86989324537E+00 0.90466349101E+00 0.96484341284E+00
 0.10535543708E+01 0.11747181597E+01 0.13326275365E+01 0.15313855206E+01 0.17741561966E+01
 0.20621612293E+01 0.23934252331E+01 0.27614241027E+01 0.31539680420E+01 0.35527689752E+01
 0.39341214534E+01 0.42709249348E+01 0.45359205409E+01 0.47056145375E+01 0.47640629858E+01
 0.47056173857E+01 0.45359294407E+01 0.42709450256E+01 0.39341532092E+01 0.35528014735E+01
 0.31539834478E+01 0.27614117961E+01 0.23933900121E+01 0.20621179637E+01 0.17741196229E+01
 0.15313646173E+01 0.13326236848E+01 0.11747245390E+01 0.10535595616E+01 0.96483978541E+00
 0.90465289531E+00 0.86988428443E+00 0.85852926434E+00 0.92575937650E+00 0.96484341284E+00
 0.10260365349E+01 0.11121952209E+01 0.12267157685E+01 0.13731191224E+01 0.15544550015E+01
 0.17724966502E+01 0.20267507868E+01 0.23134011606E+01 0.26244062667E+01 0.29470351870E+01
 0.32641173370E+01 0.35551915060E+01 0.37985698092E+01 0.39740979112E+01 0.40661403204E+01
 0.40661391350E+01 0.39740967587E+01 0.37985729598E+01 0.35551992268E+01 0.32641231519E+01
 0.29470300480E+01 0.26243859119E+01 0.23133694049E+01 0.20267165793E+01 0.17724693050E+01
 0.15544411980E+01 0.13731205493E+01 0.12267269279E+01 0.11122051935E+01 0.10260362376E+01
 0.96483247194E+00 0.92574599429E+00 0.90673741518E+00 0.90674330780E+00 0.10137371509E+01
 0.10535543708E+01 0.11121952209E+01 0.11923090209E+01 0.12968735482E+01 0.14287541770E+01
 0.15900699874E+01 0.17813908710E+01 0.20008647795E+01 0.22434459167E+01 0.25004318158E+01
 0.27594994168E+01 0.30053632533E+01 0.32210862930E+01 0.33899625358E+01 0.34977427812E+01
 0.35348019922E+01 0.34977373475E+01 0.33899555619E+01 0.32210793592E+01 0.30053531671E+01
 0.27594831446E+01 0.25004109552E+01 0.22434249447E+01 0.20008475794E+01 0.17813807624E+01
 0.15900705184E+01 0.14287662964E+01 0.12968920563E+01 0.11923242948E+01 0.11121997229E+01
 0.10535476249E+01 0.10137253002E+01 0.99069058793E+00 0.98316135152E+00 0.99069928727E+00
 0.11382999212E+01 0.11747181597E+01 0.12267157685E+01 0.12968735482E+01 0.13878769891E+01
 0.15020367271E+01 0.16406567650E+01 0.18033208841E+01 0.19872247762E+01 0.21867124068E+01
 0.23931669130E+01 0.25953559988E+01 0.27802609096E+01 0.29343528637E+01 0.30452095139E+01
 0.31032515223E+01 0.31032488256E+01 0.30452028750E+01 0.29343438121E+01 0.27802483812E+01
 0.25953400695E+01 0.23931525385E+01 0.21867057646E+01 0.19872275727E+01 0.18033313241E+01
 0.16406738452E+01 0.15020593947E+01 0.13879002547E+01 0.12968898145E+01 0.12267207932E+01
 0.11747138001E+01 0.11382914360E+01 0.11152982010E+01 0.11042005597E+01 0.11042034874E+01
 0.11153056829E+01 0.13046070708E+01 0.13326275365E+01 0.13731191224E+01 0.14287541770E+01
 0.15020367271E+01 0.15948144141E+01 0.17077207636E+01 0.18396290579E+01 0.19872247525E+01
 0.21448068269E+01 0.23044073234E+01 0.24562750589E+01 0.25897207428E+01 0.26942740342E+01
 0.27610347773E+01 0.27839965876E+01 0.27610341981E+01 0.26942712932E+01 0.25897139782E+01
 0.24562654559E+01 0.23044007856E+01 0.21448100189E+01 0.19872394457E+01 0.18396519425E+01
 0.17077474031E+01 0.15948403798E+01 0.15020562333E+01 0.14287622556E+01 0.13731163272E+01
 0.13326197649E+01 0.13045999482E+01 0.12865941630E+01 0.12766370362E+01 0.12734642088E+01
 0.12766393317E+01 0.12865987914E+01 0.15179471149E+01 0.15313855206E+01 0.15544550015E+01
 0.15900699874E+01 0.16406567650E+01 0.17077207636E+01 0.17914315718E+01 0.18902793470E+01
 0.20008647405E+01 0.21178835863E+01 0.22343585653E+01 0.23421513108E+01 0.24327564880E+01
 0.24983245665E+01 0.25327758269E+01 0.25327782487E+01 0.24983289274E+01 0.24327576345E+01
 0.23421482445E+01 0.22343559564E+01 0.21178873116E+01 0.20008772139E+01 0.18902990025E+01
 0.17914543201E+01 0.17077402742E+01 0.16406655790E+01 0.15900641877E+01 0.15544387233E+01
 0.15313687466E+01 0.15179376896E+01 0.15111516265E+01 0.15083321988E+01 0.15074635180E+01
 0.15074623894E+01 0.15083302944E+01 0.15111531716E+01 0.17830603673E+01 0.17741561966E+01
 0.17724966502E+01 0.17813908710E+01 0.18033208841E+01 0.18396290579E+01 0.18902793470E+01
 0.19537030400E+01 0.20267507802E+01 0.21047828886E+01 0.21819417244E+01 0.22516492355E+01
 0.23073372846E+01 0.23433423957E+01 0.23558046538E+01 0.23433490363E+01 0.23073445937E+01
 0.22516521598E+01 0.21819403171E+01 0.21047800784E+01 0.20267494664E+01 0.19537057202E+01
 0.18902864863E+01 0.18396358051E+01 0.18033185067E+01 0.17813744919E+01 0.17724709934E+01
 0.17741323698E+01 0.17830474503E+01 0.17954601637E+01 0.18076386279E+01 0.18163915812E+01
 0.18195610439E+01 0.18163851775E+01 0.18076315908E+01 0.17954604992E+01 0.21032023743E+01
 0.20621612293E+01 0.20267507868E+01 0.20008647795E+01 0.19872247762E+01 0.19872247525E+01
 0.20008647405E+01 0.20267507802E+01 0.20621612567E+01 0.21032024058E+01 0.21451006267E+01
 0.21826814573E+01 0.22110366577E+01 0.22262910332E+01 0.22262957545E+01 0.22110470488E+01
 0.21826896859E+01 0.21451004482E+01 0.21031914860E+01 0.20621417551E+01 0.20267297682E+01
 0.20008501621E+01 0.19872174321E+01 0.19872167605E+01 0.20008484808E+01 0.20267279169E+01
 0.20621406503E+01 0.21031916376E+01 0.21451017576E+01 0.21826916423E+01 0.22110490767E+01
 0.22262974280E+01 0.22262921388E+01 0.22110372073E+01 0.21826816341E+01 0.21451006393E+01
 0.24788051997E+01 0.23934252331E+01 0.23134011606E+01 0.22434459167E+01 0.21867124068E+01
 0.21448068269E+01 0.21178835863E+01 0.21047828886E+01 0.21032024058E+01 0.21099191438E+01