   2   2   0   0
  0.2106363E+02  0.3905645E-09  0.3905645E-09  0.3905645E-09  0.5000000E-15
  1.000000000000000E-004
  CAR 
 unknown system                          
     16.50404465     -8.24458866  301      5.67248587      1.00000000
     -8.245  0.0000E+00  0.0000E+00
     -8.162  0.0000E+00  0.0000E+00
     -8.080  0.0000E+00  0.0000E+00
     -7.997  0.0000E+00  0.0000E+00
     -7.915  0.0000E+00  0.0000E+00
     -7.832  0.0000E+00  0.0000E+00
     -7.750  0.0000E+00  0.0000E+00
     -7.667  0.0000E+00  0.0000E+00
     -7.585  0.0000E+00  0.0000E+00
     -7.502  0.0000E+00  0.0000E+00
     -7.420  0.3505E-18  0.2891E-19
     -7.337  0.3470E-16  0.2891E-17
     -7.255  0.2872E-14  0.2399E-15
     -7.172  0.1690E-12  0.1418E-13
     -7.090  0.7119E-11  0.6015E-12
     -7.007  0.2150E-09  0.1834E-10
     -6.925  0.4665E-08  0.4032E-09
     -6.842  0.7288E-07  0.6415E-08
     -6.760  0.8235E-06  0.7435E-07
     -6.677  0.6772E-05  0.6330E-06
     -6.595  0.4092E-04  0.4008E-05
     -6.512  0.1841E-03  0.1920E-04
     -6.430  0.6285E-03  0.7105E-04
     -6.347  0.1664E-02  0.2083E-03
     -6.265  0.3500E-02  0.4971E-03
     -6.182  0.6015E-02  0.9933E-03
     -6.100  0.8738E-02  0.1714E-02
     -6.017  0.1124E-01  0.2642E-02
     -5.935  0.1352E-01  0.3757E-02
     -5.852  0.1573E-01  0.5055E-02
     -5.770  0.1762E-01  0.6509E-02
     -5.687  0.1882E-01  0.8061E-02
     -5.605  0.1970E-01  0.9686E-02
     -5.522  0.2132E-01  0.1145E-01
     -5.440  0.2385E-01  0.1341E-01
     -5.357  0.2590E-01  0.1555E-01
     -5.275  0.2640E-01  0.1773E-01
     -5.192  0.2628E-01  0.1989E-01
     -5.110  0.2715E-01  0.2213E-01
     -5.027  0.2918E-01  0.2454E-01
     -4.945  0.3152E-01  0.2714E-01
     -4.862  0.3378E-01  0.2993E-01
     -4.780  0.3590E-01  0.3289E-01
     -4.697  0.3726E-01  0.3596E-01
     -4.615  0.3725E-01  0.3904E-01
     -4.532  0.3646E-01  0.4204E-01
     -4.450  0.3704E-01  0.4510E-01
     -4.367  0.4121E-01  0.4850E-01
     -4.285  0.4816E-01  0.5247E-01
     -4.202  0.5410E-01  0.5694E-01
     -4.120  0.5657E-01  0.6160E-01
     -4.037  0.5682E-01  0.6629E-01
     -3.955  0.5690E-01  0.7098E-01
     -3.872  0.5659E-01  0.7565E-01
     -3.790  0.5423E-01  0.8013E-01
     -3.707  0.5013E-01  0.8426E-01
     -3.625  0.4791E-01  0.8821E-01
     -3.542  0.5062E-01  0.9239E-01
     -3.460  0.5586E-01  0.9700E-01
     -3.377  0.5755E-01  0.1017E+00
     -3.295  0.5228E-01  0.1061E+00
     -3.212  0.4245E-01  0.1096E+00
     -3.130  0.3299E-01  0.1123E+00
     -3.047  0.2713E-01  0.1145E+00
     -2.965  0.2583E-01  0.1167E+00
     -2.882  0.2889E-01  0.1190E+00
     -2.800  0.3457E-01  0.1219E+00
     -2.717  0.3888E-01  0.1251E+00
     -2.635  0.3759E-01  0.1282E+00
     -2.552  0.2975E-01  0.1306E+00
     -2.470  0.1874E-01  0.1322E+00
     -2.387  0.9188E-02  0.1330E+00
     -2.305  0.3486E-02  0.1332E+00
     -2.222  0.1309E-02  0.1333E+00
     -2.140  0.1867E-02  0.1335E+00
     -2.057  0.5862E-02  0.1340E+00
     -1.975  0.1485E-01  0.1352E+00
     -1.892  0.2769E-01  0.1375E+00
     -1.810  0.3839E-01  0.1407E+00
     -1.727  0.4081E-01  0.1440E+00
     -1.645  0.3606E-01  0.1470E+00
     -1.562  0.3187E-01  0.1496E+00
     -1.480  0.3522E-01  0.1525E+00
     -1.397  0.4732E-01  0.1564E+00
     -1.315  0.6347E-01  0.1617E+00
     -1.232  0.7668E-01  0.1680E+00
     -1.150  0.8277E-01  0.1748E+00
     -1.067  0.8124E-01  0.1815E+00
     -0.985  0.7253E-01  0.1875E+00
     -0.902  0.5939E-01  0.1924E+00
     -0.820  0.4856E-01  0.1964E+00
     -0.738  0.4464E-01  0.2001E+00
     -0.655  0.4388E-01  0.2037E+00
     -0.573  0.3938E-01  0.2070E+00
     -0.490  0.3096E-01  0.2095E+00
     -0.408  0.2489E-01  0.2116E+00
     -0.325  0.2548E-01  0.2137E+00
     -0.243  0.3125E-01  0.2163E+00
     -0.160  0.3729E-01  0.2193E+00
     -0.078  0.3845E-01  0.2225E+00
      0.005  0.3288E-01  0.2252E+00
      0.087  0.2407E-01  0.2272E+00
      0.170  0.1781E-01  0.2287E+00
      0.252  0.1740E-01  0.2301E+00
      0.335  0.2177E-01  0.2319E+00
      0.417  0.2615E-01  0.2341E+00
      0.500  0.2563E-01  0.2362E+00
      0.582  0.1992E-01  0.2378E+00
      0.665  0.1356E-01  0.2389E+00
      0.747  0.1081E-01  0.2398E+00
      0.830  0.1206E-01  0.2408E+00
      0.912  0.1564E-01  0.2421E+00
      0.995  0.2098E-01  0.2438E+00
      1.077  0.2823E-01  0.2462E+00
      1.160  0.3643E-01  0.2492E+00
      1.242  0.4393E-01  0.2528E+00
      1.325  0.4995E-01  0.2569E+00
      1.407  0.5557E-01  0.2615E+00
      1.490  0.6323E-01  0.2667E+00
      1.572  0.7318E-01  0.2728E+00
      1.655  0.8132E-01  0.2795E+00
      1.737  0.8305E-01  0.2863E+00
      1.820  0.7877E-01  0.2928E+00
      1.902  0.7325E-01  0.2989E+00
      1.985  0.7056E-01  0.3047E+00
      2.067  0.7080E-01  0.3105E+00
      2.150  0.7163E-01  0.3164E+00
      2.232  0.7236E-01  0.3224E+00
      2.315  0.7571E-01  0.3286E+00
      2.397  0.8442E-01  0.3356E+00
      2.480  0.9580E-01  0.3435E+00
      2.562  0.1020E+00  0.3519E+00
      2.645  0.9943E-01  0.3601E+00
      2.727  0.9455E-01  0.3679E+00
      2.810  0.9509E-01  0.3758E+00
      2.892  0.9959E-01  0.3840E+00
      2.975  0.1008E+00  0.3923E+00
      3.057  0.9699E-01  0.4003E+00
      3.140  0.9441E-01  0.4081E+00
      3.222  0.9874E-01  0.4162E+00
      3.305  0.1058E+00  0.4250E+00
      3.387  0.1054E+00  0.4337E+00
      3.470  0.9385E-01  0.4414E+00
      3.552  0.7917E-01  0.4479E+00
      3.635  0.7259E-01  0.4539E+00
      3.717  0.7792E-01  0.4604E+00
      3.800  0.8873E-01  0.4677E+00
      3.882  0.9492E-01  0.4755E+00
      3.965  0.9137E-01  0.4830E+00
      4.047  0.8042E-01  0.4897E+00
      4.130  0.6856E-01  0.4953E+00
      4.212  0.6152E-01  0.5004E+00
      4.295  0.5986E-01  0.5054E+00
      4.377  0.5811E-01  0.5101E+00
      4.460  0.5081E-01  0.5143E+00
      4.542  0.3952E-01  0.5176E+00
      4.625  0.3079E-01  0.5201E+00
      4.707  0.2813E-01  0.5225E+00
      4.790  0.2859E-01  0.5248E+00
      4.872  0.2715E-01  0.5271E+00
      4.955  0.2241E-01  0.5289E+00
      5.037  0.1679E-01  0.5303E+00
      5.120  0.1255E-01  0.5313E+00
      5.202  0.9645E-02  0.5321E+00
      5.285  0.7027E-02  0.5327E+00
      5.367  0.4376E-02  0.5331E+00
      5.450  0.2177E-02  0.5332E+00
      5.532  0.8335E-03  0.5333E+00
      5.615  0.2428E-03  0.5333E+00
      5.697  0.7771E-04  0.5333E+00
      5.780  0.1708E-03  0.5333E+00
      5.862  0.7193E-03  0.5334E+00
      5.945  0.2305E-02  0.5336E+00
      6.027  0.5433E-02  0.5340E+00
      6.110  0.9599E-02  0.5348E+00
      6.192  0.1329E-01  0.5359E+00
      6.275  0.1587E-01  0.5372E+00
      6.357  0.1897E-01  0.5388E+00
      6.440  0.2449E-01  0.5408E+00
      6.522  0.3144E-01  0.5434E+00
      6.605  0.3681E-01  0.5465E+00
      6.687  0.3999E-01  0.5498E+00
      6.770  0.4366E-01  0.5534E+00
      6.852  0.4924E-01  0.5574E+00
      6.935  0.5456E-01  0.5619E+00
      7.017  0.5757E-01  0.5667E+00
      7.100  0.5911E-01  0.5715E+00
      7.182  0.6192E-01  0.5767E+00
      7.265  0.6958E-01  0.5824E+00
      7.347  0.8450E-01  0.5894E+00
      7.430  0.1037E+00  0.5979E+00
      7.512  0.1178E+00  0.6076E+00
      7.595  0.1184E+00  0.6174E+00
      7.677  0.1071E+00  0.6262E+00
      7.760  0.9345E-01  0.6339E+00
      7.842  0.8557E-01  0.6410E+00
      7.925  0.8481E-01  0.6480E+00
      8.007  0.8597E-01  0.6551E+00
      8.090  0.8327E-01  0.6620E+00
      8.172  0.7673E-01  0.6683E+00
      8.255  0.7143E-01  0.6742E+00
      8.337  0.7272E-01  0.6802E+00
      8.419  0.8390E-01  0.6871E+00
      8.502  0.1038E+00  0.6957E+00
      8.584  0.1249E+00  0.7060E+00
      8.667  0.1369E+00  0.7173E+00
      8.749  0.1361E+00  0.7285E+00
      8.832  0.1275E+00  0.7390E+00
      8.914  0.1192E+00  0.7488E+00
      8.997  0.1136E+00  0.7582E+00
      9.079  0.1082E+00  0.7671E+00
      9.162  0.1013E+00  0.7755E+00
      9.244  0.9482E-01  0.7833E+00
      9.327  0.9009E-01  0.7908E+00
      9.409  0.8739E-01  0.7980E+00
      9.492  0.8653E-01  0.8051E+00
      9.574  0.8635E-01  0.8122E+00
      9.657  0.8588E-01  0.8193E+00
      9.739  0.8600E-01  0.8264E+00
      9.822  0.8738E-01  0.8336E+00
      9.904  0.8867E-01  0.8409E+00
      9.987  0.8988E-01  0.8484E+00
     10.069  0.9369E-01  0.8561E+00
     10.152  0.9972E-01  0.8643E+00
     10.234  0.1016E+00  0.8727E+00
     10.317  0.9411E-01  0.8804E+00
     10.399  0.8060E-01  0.8871E+00
     10.482  0.6878E-01  0.8928E+00
     10.564  0.6276E-01  0.8979E+00
     10.647  0.6100E-01  0.9030E+00
     10.729  0.6166E-01  0.9081E+00
     10.812  0.6693E-01  0.9136E+00
     10.894  0.7875E-01  0.9201E+00
     10.977  0.9275E-01  0.9277E+00
     11.059  0.1015E+00  0.9361E+00
     11.142  0.1012E+00  0.9445E+00
     11.224  0.9212E-01  0.9521E+00
     11.307  0.7683E-01  0.9584E+00
     11.389  0.6036E-01  0.9634E+00
     11.472  0.4901E-01  0.9674E+00
     11.554  0.4612E-01  0.9712E+00
     11.637  0.4871E-01  0.9752E+00
     11.719  0.4997E-01  0.9794E+00
     11.802  0.4674E-01  0.9832E+00
     11.884  0.4288E-01  0.9868E+00
     11.967  0.4501E-01  0.9905E+00
     12.049  0.5669E-01  0.9951E+00
     12.132  0.7434E-01  0.1001E+01
     12.214  0.8704E-01  0.1008E+01
     12.297  0.8483E-01  0.1015E+01
     12.379  0.6820E-01  0.1021E+01
     12.462  0.4674E-01  0.1025E+01
     12.544  0.3066E-01  0.1027E+01
     12.627  0.2489E-01  0.1030E+01
     12.709  0.2720E-01  0.1032E+01
     12.792  0.3056E-01  0.1034E+01
     12.874  0.3037E-01  0.1037E+01
     12.957  0.2862E-01  0.1039E+01
     13.039  0.2909E-01  0.1042E+01
     13.122  0.3189E-01  0.1044E+01
     13.204  0.3518E-01  0.1047E+01
     13.287  0.3815E-01  0.1050E+01
     13.369  0.3938E-01  0.1053E+01
     13.452  0.3561E-01  0.1056E+01
     13.534  0.2592E-01  0.1059E+01
     13.617  0.1440E-01  0.1060E+01
     13.699  0.5971E-02  0.1060E+01
     13.782  0.2007E-02  0.1060E+01
     13.864  0.1262E-02  0.1061E+01
     13.947  0.2595E-02  0.1061E+01
     14.029  0.5328E-02  0.1061E+01
     14.112  0.8126E-02  0.1062E+01
     14.194  0.9302E-02  0.1063E+01
     14.277  0.8809E-02  0.1063E+01
     14.359  0.8398E-02  0.1064E+01
     14.442  0.8910E-02  0.1065E+01
     14.524  0.8971E-02  0.1065E+01
     14.607  0.7230E-02  0.1066E+01
     14.689  0.4348E-02  0.1066E+01
     14.772  0.1911E-02  0.1067E+01
     14.854  0.6104E-03  0.1067E+01
     14.937  0.1413E-03  0.1067E+01
     15.019  0.2366E-04  0.1067E+01
     15.102  0.2864E-05  0.1067E+01
     15.184  0.2503E-06  0.1067E+01
     15.267  0.1576E-07  0.1067E+01
     15.349  0.7143E-09  0.1067E+01
     15.432  0.2328E-10  0.1067E+01
     15.514  0.5447E-12  0.1067E+01
     15.597  0.9145E-14  0.1067E+01
     15.679  0.1093E-15  0.1067E+01
     15.762  0.0000E+00  0.1067E+01
     15.844  0.0000E+00  0.1067E+01
     15.927  0.0000E+00  0.1067E+01
     16.009  0.0000E+00  0.1067E+01
     16.092  0.0000E+00  0.1067E+01
     16.174  0.0000E+00  0.1067E+01
     16.257  0.0000E+00  0.1067E+01
     16.339  0.0000E+00  0.1067E+01
     16.422  0.0000E+00  0.1067E+01
     16.504  0.0000E+00  0.1067E+01
