    2    2   15    1
  0.2106363E+02  0.3905645E-09  0.3905645E-09  0.3905645E-09  0.5000000E-15
  1.000000000000000E-004
  CAR 
 unknown system                          
      8     60      8
 
  0.6250000E-01  0.6250000E-01  0.6250000E-01  0.3906250E-02
    1       -6.244589   1.000000
    2        4.787337   1.000000
    3        5.243312   0.998796
    4        5.243312   0.998796
    5        7.856133   0.000000
    6        7.985515   0.000000
    7        7.985515   0.000000
    8        8.583773   0.000000
 
  0.1875000E+00  0.6250000E-01  0.6250000E-01  0.1171875E-01
    1       -5.985155   1.000000
    2        3.297931   1.000000
    3        4.467014   1.000000
    4        5.126582   0.999943
    5        7.873249   0.000000
    6        8.224459   0.000000
    7        8.488818   0.000000
    8       10.105970   0.000000
 
  0.3125000E+00  0.6250000E-01  0.6250000E-01  0.1171875E-01
    1       -5.360016   1.000000
    2        1.134902   1.000000
    3        3.988289   1.000000
    4        4.678560   1.000000
    5        7.420413   0.000000
    6        8.715674   0.000000
    7        8.991531   0.000000
    8       11.714469   0.000000
 
  0.4375000E+00  0.6250000E-01  0.6250000E-01  0.1171875E-01
    1       -4.492592   1.000000
    2       -0.689668   1.000000
    3        3.773424   1.000000
    4        4.284232   1.000000
    5        7.107620   0.000000
    6        8.798468   0.000000
    7        8.812119   0.000000
    8       13.014299   0.000000
 
 -0.4375000E+00  0.6250000E-01  0.6250000E-01  0.1171875E-01
    1       -4.066762   1.000000
    2       -1.360712   1.000000
    3        3.818232   1.000000
    4        4.074290   1.000000
    5        7.029313   0.000000
    6        8.615566   0.000000
    7        8.877497   0.000000
    8       13.115441   0.000000
 
 -0.3125000E+00  0.6250000E-01  0.6250000E-01  0.1171875E-01
    1       -4.788673   1.000000
    2       -0.151597   1.000000
    3        4.095449   1.000000
    4        4.097146   1.000000
    5        7.197429   0.000000
    6        8.609827   0.000000
    7        9.116886   0.000000
    8       12.153717   0.000000
 
 -0.1875000E+00  0.6250000E-01  0.6250000E-01  0.1171875E-01
    1       -5.604887   1.000000
    2        1.843498   1.000000
    3        4.367500   1.000000
    4        4.547282   1.000000
    5        7.562104   0.000000
    6        8.438395   0.000000
    7        9.147615   0.000000
    8       10.946798   0.000000
 
 -0.6250000E-01  0.6250000E-01  0.6250000E-01  0.1171875E-01
    1       -6.114166   1.000000
    2        4.035288   1.000000
    3        4.834718   1.000000
    4        4.979027   1.000000
    5        7.704217   0.000000
    6        8.197236   0.000000
    7        8.543460   0.000000
    8        9.356521   0.000000
 
  0.1875000E+00  0.1875000E+00  0.6250000E-01  0.1171875E-01
    1       -5.854547   1.000000
    2        3.140663   1.000000
    3        4.297210   1.000000
    4        4.367448   1.000000
    5        7.299584   0.000000
    6        8.919984   0.000000
    7        9.374866   0.000000
    8        9.833930   0.000000
 
  0.3125000E+00  0.1875000E+00  0.6250000E-01  0.2343750E-01
    1       -5.347309   1.000000
    2        1.674514   1.000000
    3        3.357842   1.000000
    4        4.118336   1.000000
    5        7.461823   0.000000
    6        9.024099   0.000000
    7        9.770771   0.000000
    8       10.152571   0.000000
 
  0.4375000E+00  0.1875000E+00  0.6250000E-01  0.2343750E-01
    1       -4.532799   1.000000
    2       -0.116954   1.000000
    3        2.864742   1.000000
    4        3.725946   1.000000
    5        7.639016   0.000000
    6        9.013138   0.000000
    7       10.180665   0.000000
    8       10.486410   0.000000
 
 -0.4375000E+00  0.1875000E+00  0.6250000E-01  0.2343750E-01
    1       -3.806118   1.000000
    2       -1.275820   1.000000
    3        2.580728   1.000000
    4        3.637440   1.000000
    5        7.690222   0.000000
    6        8.749140   0.000000
    7       10.045420   0.000000
    8       12.433424   0.000000
 
 -0.3125000E+00  0.1875000E+00  0.6250000E-01  0.2343750E-01
    1       -4.241857   1.000000
    2       -0.615982   1.000000
    3        2.515734   1.000000
    4        3.910113   1.000000
    5        7.938259   0.000000
    6        8.684433   0.000000
    7        9.985538   0.000000
    8       11.709524   0.000000
 
 -0.1875000E+00  0.1875000E+00  0.6250000E-01  0.2343750E-01
    1       -5.108106   1.000000
    2        1.047071   1.000000
    3        2.821483   1.000000
    4        4.397683   1.000000
    5        8.251310   0.000000
    6        8.574613   0.000000
    7        9.858214   0.000000
    8       10.354381   0.000000
 
 -0.6250000E-01  0.1875000E+00  0.6250000E-01  0.2343750E-01
    1       -5.728532   1.000000
    2        2.492088   1.000000
    3        3.909539   1.000000
    4        4.756650   1.000000
    5        7.834008   0.000000
    6        8.417266   0.000000
    7        9.193987   0.000000
    8       10.371510   0.000000
 
  0.3125000E+00  0.3125000E+00  0.6250000E-01  0.1171875E-01
    1       -4.959407   1.000000
    2        1.161564   1.000000
    3        3.221549   1.000000
    4        3.339136   1.000000
    5        6.517207   0.000000
    6        8.151527   0.000000
    7       11.170708   0.000000
    8       11.325660   0.000000
 
  0.4375000E+00  0.3125000E+00  0.6250000E-01  0.2343750E-01
    1       -4.233189   1.000000
    2       -0.040224   1.000000
    3        2.464532   1.000000
    4        3.005756   1.000000
    5        6.825507   0.000000
    6        7.994032   0.000000
    7       11.136477   0.000000
    8       12.289067   0.000000
 
 -0.4375000E+00  0.3125000E+00  0.6250000E-01  0.2343750E-01
    1       -3.371501   1.000000
    2       -1.191331   1.000000
    3        1.654377   1.000000
    4        2.974821   1.000000
    5        7.059123   0.000000
    6        9.609832   0.000000
    7       10.722110   0.000000
    8       12.201913   0.000000
 
 -0.3125000E+00  0.3125000E+00  0.6250000E-01  0.2343750E-01
    1       -3.442268   1.000000
    2       -1.099130   1.000000
    3        1.317890   1.000000
    4        3.305762   1.000000
    5        7.443394   0.000000
    6       10.303935   0.000000
    7       11.548766   0.000000
    8       11.906081   0.000000
 
 -0.1875000E+00  0.3125000E+00  0.6250000E-01  0.2343750E-01
    1       -4.303483   1.000000
    2       -0.167389   1.000000
    3        1.894666   1.000000
    4        3.868255   1.000000
    5        8.031905   0.000000
    6        9.226176   0.000000
    7       10.597738   0.000000
    8       10.904828   0.000000
 
 -0.6250000E-01  0.3125000E+00  0.6250000E-01  0.2343750E-01
    1       -4.999360   1.000000
    2        0.476747   1.000000
    3        3.458933   1.000000
    4        4.300849   1.000000
    5        7.698960   0.000000
    6        8.614345   0.000000
    7        9.454379   0.000000
    8       11.112093   0.000000
 
  0.4375000E+00  0.4375000E+00  0.6250000E-01  0.1171875E-01
    1       -3.600124   1.000000
    2       -0.880389   1.000000
    3        2.557724   1.000000
    4        2.763889   1.000000
    5        6.143137   0.000437
    6        6.848193   0.000000
    7       13.402927   0.000000
    8       13.431434   0.000000
 
 -0.4375000E+00  0.4375000E+00  0.6250000E-01  0.2343750E-01
    1       -2.722194   1.000000
    2       -1.839939   1.000000
    3        2.025506   1.000000
    4        2.532103   1.000000
    5        6.566734   0.000000
    6        7.274111   0.000000
    7       13.173152   0.000000
    8       14.130863   0.000000
 
 -0.3125000E+00  0.4375000E+00  0.6250000E-01  0.2343750E-01
    1       -2.824310   1.000000
    2       -1.673745   1.000000
    3        1.328010   1.000000
    4        2.835982   1.000000
    5        6.918186   0.000000
    6        9.453839   0.000000
    7       11.689202   0.000000
    8       12.789089   0.000000
 
 -0.1875000E+00  0.4375000E+00  0.6250000E-01  0.2343750E-01
    1       -3.558014   1.000000
    2       -1.247269   1.000000
    3        1.837819   1.000000
    4        3.415067   1.000000
    5        7.553650   0.000000
    6        9.466336   0.000000
    7       10.963351   0.000000
    8       12.191100   0.000000
 
 -0.6250000E-01  0.4375000E+00  0.6250000E-01  0.2343750E-01
    1       -4.144721   1.000000
    2       -1.080738   1.000000
    3        3.282595   1.000000
    4        3.978680   1.000000
    5        7.489739   0.000000
    6        8.550124   0.000000
    7        9.291807   0.000000
    8       12.754662   0.000000
 
 -0.4375000E+00 -0.4375000E+00  0.6250000E-01  0.1171875E-01
    1       -2.769757   1.000000
    2       -1.855440   1.000000
    3        2.424507   1.000000
    4        2.646299   1.000000
    5        6.145820   0.000408
    6        6.496950   0.000000
    7       14.451795   0.000000
    8       14.504045   0.000000
 
 -0.3125000E+00 -0.4375000E+00  0.6250000E-01  0.2343750E-01
    1       -3.518828   1.000000
    2       -0.942844   1.000000
    3        2.175803   1.000000
    4        2.686882   1.000000
    5        6.647378   0.000000
    6        7.522688   0.000000
    7       12.129004   0.000000
    8       13.412470   0.000000
 
 -0.1875000E+00 -0.4375000E+00  0.6250000E-01  0.2343750E-01
    1       -3.978151   1.000000
    2       -0.662472   1.000000
    3        2.219674   1.000000
    4        3.264385   1.000000
    5        7.322383   0.000000
    6        9.787583   0.000000
    7        9.954447   0.000000
    8       11.173839   0.000000
 
 -0.3125000E+00 -0.3125000E+00  0.6250000E-01  0.1171875E-01
    1       -4.333896   1.000000
    2        0.134267   1.000000
    3        2.823827   1.000000
    4        2.996672   1.000000
    5        6.265480   0.000014
    6        7.412711   0.000000
    7       12.270387   0.000000
    8       12.365322   0.000000
 
 -0.1875000E+00 -0.3125000E+00  0.6250000E-01  0.2343750E-01
    1       -4.846385   1.000000
    2        0.835058   1.000000
    3        2.867339   1.000000
    4        3.494459   1.000000
    5        7.103688   0.000000
    6        8.642553   0.000000
    7       10.218046   0.000000
    8       11.191213   0.000000
 
 -0.1875000E+00 -0.1875000E+00  0.6250000E-01  0.1171875E-01
    1       -5.468278   1.000000
    2        2.173114   1.000000
    3        3.745012   1.000000
    4        3.780284   1.000000
    5        6.876142   0.000000
    6        8.950227   0.000000
    7       10.165665   0.000000
    8       10.322165   0.000000
 
  0.1875000E+00  0.1875000E+00  0.1875000E+00  0.3906250E-02
    1       -5.857822   1.000000
    2        2.597750   1.000000
    3        4.816675   1.000000
    4        4.816675   1.000000
    5        7.421348   0.000000
    6        8.585809   0.000000
    7        8.585809   0.000000
    8       10.731308   0.000000
 
  0.3125000E+00  0.1875000E+00  0.1875000E+00  0.1171875E-01
    1       -5.478384   1.000000
    2        1.762734   1.000000
    3        3.356198   1.000000
    4        4.829963   1.000000
    5        8.073907   0.000000
    6        8.708558   0.000000
    7        8.983095   0.000000
    8       10.893258   0.000000
 
  0.4375000E+00  0.1875000E+00  0.1875000E+00  0.1171875E-01
    1       -4.756673   1.000000
    2        0.422510   1.000000
    3        2.311233   1.000000
    4        4.342759   1.000000
    5        7.969120   0.000000
    6        9.447734   0.000000
    7        9.632261   0.000000
    8       11.178878   0.000000
 
 -0.4375000E+00  0.1875000E+00  0.1875000E+00  0.1171875E-01
    1       -3.898172   1.000000
    2       -1.007878   1.000000
    3        2.151363   1.000000
    4        3.830634   1.000000
    5        7.507824   0.000000
    6        9.592714   0.000000
    7        9.847350   0.000000
    8       13.009851   0.000000
 
 -0.3125000E+00  0.1875000E+00  0.1875000E+00  0.1171875E-01
    1       -3.882704   1.000000
    2       -1.035609   1.000000
    3        2.437094   1.000000
    4        3.524721   1.000000
    5        7.251566   0.000000
    6        9.651445   0.000000
    7       10.185095   0.000000
    8       11.131097   0.000000
 
 -0.1875000E+00  0.1875000E+00  0.1875000E+00  0.1171875E-01
    1       -4.739629   1.000000
    2        0.419357   1.000000
    3        3.032492   1.000000
    4        3.503655   1.000000
    5        7.189316   0.000000
    6        9.312529   0.000000
    7        9.942278   0.000000
    8       10.533671   0.000000
 
  0.3125000E+00  0.3125000E+00  0.1875000E+00  0.1171875E-01
    1       -5.230031   1.000000
    2        1.119237   1.000000
    3        3.828074   1.000000
    4        3.908590   1.000000
    5        7.551489   0.000000
    6        8.843418   0.000000
    7        9.805219   0.000000
    8       10.202951   0.000000
 
  0.4375000E+00  0.3125000E+00  0.1875000E+00  0.2343750E-01
    1       -4.624586   1.000000
    2        0.349795   1.000000
    3        2.366432   1.000000
    4        3.717724   1.000000
    5        8.046661   0.000000
    6        9.025904   0.000000
    7        9.572761   0.000000
    8       11.020033   0.000000
 
 -0.4375000E+00  0.3125000E+00  0.1875000E+00  0.2343750E-01
    1       -3.765937   1.000000
    2       -0.726489   1.000000
    3        1.607216   1.000000
    4        3.173925   1.000000
    5        8.489586   0.000000
    6        8.967098   0.000000
    7       10.212973   0.000000
    8       12.089918   0.000000
 
 -0.3125000E+00  0.3125000E+00  0.1875000E+00  0.2343750E-01
    1       -3.299377   1.000000
    2       -1.313958   1.000000
    3        1.604879   1.000000
    4        2.874408   1.000000
    5        8.038823   0.000000
    6        9.286455   0.000000
    7       10.977441   0.000000
    8       12.205539   0.000000
 
 -0.1875000E+00  0.3125000E+00  0.1875000E+00  0.2343750E-01
    1       -4.038698   1.000000
    2       -0.350729   1.000000
    3        2.017323   1.000000
    4        3.045812   1.000000
    5        7.775145   0.000000
    6        8.974755   0.000000
    7        9.780566   0.000000
    8       12.206898   0.000000
 
  0.4375000E+00  0.4375000E+00  0.1875000E+00  0.1171875E-01
    1       -4.144042   1.000000
    2       -0.289960   1.000000
    3        2.335571   1.000000
    4        3.183323   1.000000
    5        6.827646   0.000000
    6        8.810256   0.000000
    7       10.963968   0.000000
    8       11.337847   0.000000
 
 -0.4375000E+00  0.4375000E+00  0.1875000E+00  0.2343750E-01
    1       -3.367901   1.000000
    2       -1.077968   1.000000
    3        1.786331   1.000000
    4        2.530486   1.000000
    5        7.580785   0.000000
    6        8.575800   0.000000
    7       10.655744   0.000000
    8       13.374977   0.000000
 
 -0.3125000E+00  0.4375000E+00  0.1875000E+00  0.2343750E-01
    1       -2.590605   1.000000
    2       -1.813708   1.000000
    3        1.484807   1.000000
    4        2.049852   1.000000
    5        8.678660   0.000000
    6        9.599825   0.000000
    7       10.208785   0.000000
    8       11.203894   0.000000
 
 -0.1875000E+00  0.4375000E+00  0.1875000E+00  0.2343750E-01
    1       -3.173008   1.000000
    2       -1.276040   1.000000
    3        1.472625   1.000000
    4        2.507068   1.000000
    5        8.774464   0.000000
    6        9.181283   0.000000
    7        9.909512   0.000000
    8       12.341206   0.000000
 
 -0.4375000E+00 -0.4375000E+00  0.1875000E+00  0.1171875E-01
    1       -2.745898   1.000000
    2       -1.788837   1.000000
    3        1.584458   1.000000
    4        2.851453   1.000000
    5        6.413790   0.000000
    6        8.262383   0.000000
    7       13.101247   0.000000
    8       13.261891   0.000000
 
 -0.3125000E+00 -0.4375000E+00  0.1875000E+00  0.2343750E-01
    1       -2.648537   1.000000
    2       -1.822095   1.000000
    3        1.674813   1.000000
    4        2.253503   1.000000
    5        7.481344   0.000000
    6        8.374811   0.000000
    7       11.637698   0.000000
    8       12.722334   0.000000
 
 -0.3125000E+00 -0.3125000E+00  0.1875000E+00  0.1171875E-01
    1       -3.461581   1.000000
    2       -1.037805   1.000000
    3        1.837489   1.000000
    4        2.963211   1.000000
    5        6.556778   0.000000
    6        8.443999   0.000000
    7       12.096878   0.000000
    8       12.219386   0.000000
 
  0.3125000E+00  0.3125000E+00  0.3125000E+00  0.3906250E-02
    1       -5.127115   1.000000
    2        0.454737   1.000000
    3        4.414068   1.000000
    4        4.414068   1.000000
    5        6.968466   0.000000
    6        8.832580   0.000000
    7        8.832580   0.000000
    8       12.770251   0.000000
 
  0.4375000E+00  0.3125000E+00  0.3125000E+00  0.1171875E-01
    1       -4.664228   1.000000
    2       -0.114168   1.000000
    3        2.989637   1.000000
    4        4.327926   1.000000
    5        7.702144   0.000000
    6        9.045565   0.000000
    7        9.098120   0.000000
    8       12.184852   0.000000
 
 -0.4375000E+00  0.3125000E+00  0.3125000E+00  0.1171875E-01
    1       -3.900020   1.000000
    2       -0.657189   1.000000
    3        1.529282   1.000000
    4        3.769199   1.000000
    5        7.446459   0.000000
    6       10.445141   0.000000
    7       10.590788   0.000000
    8       11.925187   0.000000
 
 -0.3125000E+00  0.3125000E+00  0.3125000E+00  0.1171875E-01
    1       -3.109987   1.000000
    2       -1.423627   1.000000
    3        1.210067   1.000000
    4        3.241753   1.000000
    5        6.862116   0.000000
    6       10.671455   0.000000
    7       11.682930   0.000000
    8       11.889917   0.000000
 
  0.4375000E+00  0.4375000E+00  0.3125000E+00  0.1171875E-01
    1       -4.362295   1.000000
    2       -0.652667   1.000000
    3        3.306799   1.000000
    4        3.786500   1.000000
    5        7.455709   0.000000
    6        8.800908   0.000000
    7        9.573021   0.000000
    8       11.558044   0.000000
 
 -0.4375000E+00  0.4375000E+00  0.3125000E+00  0.2343750E-01
    1       -3.765095   1.000000
    2       -1.016694   1.000000
    3        2.049546   1.000000
    4        3.332179   1.000000
    5        8.228680   0.000000
    6        8.599738   0.000000
    7       11.034230   0.000000
    8       11.319895   0.000000
 
 -0.3125000E+00  0.4375000E+00  0.3125000E+00  0.2343750E-01
    1       -2.975559   1.000000
    2       -1.492560   1.000000
    3        1.299195   1.000000
    4        2.646585   1.000000
    5        7.916756   0.000000
    6       10.115840   0.000000
    7       10.864461   0.000000
    8       11.368106   0.000000
 
 -0.4375000E+00 -0.4375000E+00  0.3125000E+00  0.1171875E-01
    1       -3.420527   1.000000
    2       -1.293768   1.000000
    3        1.678119   1.000000
    4        3.338249   1.000000
    5        7.003073   0.000000
    6       10.628289   0.000000
    7       10.926093   0.000000
    8       10.941819   0.000000
 
  0.4375000E+00  0.4375000E+00  0.4375000E+00  0.3906250E-02
    1       -4.274047   1.000000
    2       -1.134090   1.000000
    3        4.197839   1.000000
    4        4.197839   1.000000
    5        6.716580   0.000000
    6        8.712680   0.000000
    7        8.712680   0.000000
    8       13.019467   0.000000
 
 -0.4375000E+00  0.4375000E+00  0.4375000E+00  0.1171875E-01
    1       -3.937291   1.000000
    2       -1.308632   1.000000
    3        3.002273   1.000000
    4        3.940771   1.000000
    5        7.467300   0.000000
    6        8.813440   0.000000
    7        9.273762   0.000000
    8       13.346201   0.000000
