 vasp.5.4.4.18Apr17-6-g9f103f2a35 (build Dec 09 2018 21:25:21) complex          
  
 executed on IFC18.0.1.163_CrayMP date 2019.03.23  21:22:12
 running on    8 total cores
 distrk:  each k-point on    8 cores,    1 groups
 distr:  one band on NCORES_PER_BAND=   1 cores,    8 groups


--------------------------------------------------------------------------------------------------------


 INCAR:
 POTCAR:   PAW_PBE Si 05Jan2001                   

 ----------------------------------------------------------------------------- 
|                                                                             |
|           W    W    AA    RRRRR   N    N  II  N    N   GGGG   !!!           |
|           W    W   A  A   R    R  NN   N  II  NN   N  G    G  !!!           |
|           W    W  A    A  R    R  N N  N  II  N N  N  G       !!!           |
|           W WW W  AAAAAA  RRRRR   N  N N  II  N  N N  G  GGG   !            |
|           WW  WW  A    A  R   R   N   NN  II  N   NN  G    G                |
|           W    W  A    A  R    R  N    N  II  N    N   GGGG   !!!           |
|                                                                             |
|      For optimal performance we recommend to set                            |
|        NCORE= 4 - approx SQRT( number of cores)                             |
|      NCORE specifies how many cores store one orbital (NPAR=cpu/NCORE).     |
|      This setting can  greatly improve the performance of VASP for DFT.     |
|      The default,   NCORE=1            might be grossly inefficient         |
|      on modern multi-core architectures or massively parallel machines.     |
|      Do your own testing !!!!                                               |
|      Unfortunately you need to use the default for GW and RPA calculations. |
|      (for HF NCORE is supported but not extensively tested yet)             |
|                                                                             |
 ----------------------------------------------------------------------------- 

 POTCAR:   PAW_PBE Si 05Jan2001                   
   VRHFIN =Si: s2p2                                                             
   LEXCH  = PE                                                                  
   EATOM  =   103.0669 eV,    7.5752 Ry                                         
                                                                                
   TITEL  = PAW_PBE Si 05Jan2001                                                
   LULTRA =        F    use ultrasoft PP ?                                      
   IUNSCR =        1    unscreen: 0-lin 1-nonlin 2-no                           
   RPACOR =    1.500    partial core radius                                     
   POMASS =   28.085; ZVAL   =    4.000    mass and valenz                      
   RCORE  =    1.900    outmost cutoff radius                                   
   RWIGS  =    2.480; RWIGS  =    1.312    wigner-seitz radius (au A)           
   ENMAX  =  245.345; ENMIN  =  184.009 eV                                      
   ICORE  =        2    local potential                                         
   LCOR   =        T    correct aug charges                                     
   LPAW   =        T    paw PP                                                  
   EAUG   =  322.069                                                            
   DEXC   =    -.007                                                            
   RMAX   =    2.944    core radius for proj-oper                               
   RAUG   =    1.300    factor for augmentation sphere                          
   RDEP   =    1.993    radius for radial grids                                 
   QCUT   =   -4.246; QGAM   =    8.493    optimization parameters              
                                                                                
   Description                                                                  
     l     E      TYP  RCUT    TYP  RCUT                                        
     0   .000     23  1.900                                                     
     0   .000     23  1.900                                                     
     1   .000     23  1.900                                                     
     1   .000     23  1.900                                                     
     2   .000      7  1.900                                                     
  local pseudopotential read in
  partial core-charges read in
  atomic valenz-charges read in
  non local Contribution for L=           0  read in
    real space projection operators read in
  non local Contribution for L=           0  read in
    real space projection operators read in
  non local Contribution for L=           1  read in
    real space projection operators read in
  non local Contribution for L=           1  read in
    real space projection operators read in
    PAW grid and wavefunctions read in
 
   number of l-projection  operators is LMAX  =           4
   number of lm-projection operators is LMMAX =           8
 
 PAW_PBE Si 05Jan2001                   :
 energy of atom  1       EATOM= -103.0669
 kinetic energy error for atom=    0.0013 (will be added to EATOM!!)
 
 
 POSCAR: Si2                                     
  positions in direct lattice
  No initial velocities read in
 exchange correlation table for  LEXCH =        8
   RHO(1)=    0.500       N(1)  =     2000
   RHO(2)=  100.500       N(2)  =     4000
 


--------------------------------------------------------------------------------------------------------


 ion  position               nearest neighbor table
   1  0.500  0.500  0.500-   2 2.39   2 2.39   2 2.39   2 2.39
   2  0.750  0.750  0.750-   1 2.39   1 2.39   1 2.39   1 2.39
 
  LATTYP: Found a face centered cubic cell.
 ALAT       =     5.5234160000
  
  Lattice vectors:
  
 A1 = (   0.0000000000,   2.7617080000,   2.7617080000)
 A2 = (   2.7617080000,   0.0000000000,   2.7617080000)
 A3 = (   2.7617080000,   2.7617080000,   0.0000000000)


Analysis of symmetry for initial positions (statically):
=====================================================================
 Subroutine PRICEL returns:
 Original cell was already a primitive cell.
 

 Routine SETGRP: Setting up the symmetry group for a 
 face centered cubic supercell.


 Subroutine GETGRP returns: Found 48 space group operations
 (whereof 24 operations were pure point group operations)
 out of a pool of 48 trial point group operations.


The static configuration has the point symmetry T_d .
 The point group associated with its full space group is O_h .


Analysis of symmetry for dynamics (positions and initial velocities):
=====================================================================
 Subroutine PRICEL returns:
 Original cell was already a primitive cell.
 

 Routine SETGRP: Setting up the symmetry group for a 
 face centered cubic supercell.


 Subroutine GETGRP returns: Found 48 space group operations
 (whereof 24 operations were pure point group operations)
 out of a pool of 48 trial point group operations.


The dynamic configuration has the point symmetry T_d .
 The point group associated with its full space group is O_h .


 Subroutine INISYM returns: Found 48 space group operations
 (whereof 24 operations are pure point group operations),
 and found     1 'primitive' translations

 
 
 KPOINTS: Automatic kpoint scheme                 

Automatic generation of k-mesh.
Space group operators:
 irot       det(A)        alpha          n_x          n_y          n_z        tau_x        tau_y        tau_z
    1     1.000000     0.000000     1.000000     0.000000     0.000000     0.000000     0.000000     0.000000
    2     1.000000   120.000000    -0.577350    -0.577350    -0.577350     0.000000     0.000000     0.000000
    3     1.000000   120.000000     0.577350     0.577350     0.577350     0.000000     0.000000     0.000000
    4    -1.000000    90.000000    -0.000000    -0.000000    -1.000000     0.000000     0.000000     0.000000
    5    -1.000000   180.000000     0.000000     0.707107     0.707107     0.000000     0.000000     0.000000
    6    -1.000000    90.000000    -0.000000     1.000000    -0.000000     0.000000     0.000000     0.000000
    7     1.000000   180.000000    -0.000000     0.000000     1.000000     0.000000     0.000000     0.000000
    8     1.000000   120.000000    -0.577350     0.577350     0.577350     0.000000     0.000000     0.000000
    9     1.000000   120.000000    -0.577350     0.577350    -0.577350     0.000000     0.000000     0.000000
   10    -1.000000    90.000000     0.000000     0.000000     1.000000     0.000000     0.000000     0.000000
   11    -1.000000    90.000000    -1.000000     0.000000     0.000000     0.000000     0.000000     0.000000
   12    -1.000000   180.000000     0.707107     0.000000     0.707107     0.000000     0.000000     0.000000
   13     1.000000   120.000000     0.577350    -0.577350     0.577350     0.000000     0.000000     0.000000
   14     1.000000   120.000000    -0.577350    -0.577350     0.577350     0.000000     0.000000     0.000000
   15     1.000000   180.000000     1.000000     0.000000     0.000000     0.000000     0.000000     0.000000
   16    -1.000000    90.000000     0.000000    -1.000000     0.000000     0.000000     0.000000     0.000000
   17    -1.000000   180.000000     0.707107     0.707107    -0.000000     0.000000     0.000000     0.000000
   18    -1.000000    90.000000     1.000000     0.000000     0.000000     0.000000     0.000000     0.000000
   19     1.000000   120.000000     0.577350    -0.577350    -0.577350     0.000000     0.000000     0.000000
   20     1.000000   180.000000     0.000000     1.000000     0.000000     0.000000     0.000000     0.000000
   21     1.000000   120.000000     0.577350     0.577350    -0.577350     0.000000     0.000000     0.000000
   22    -1.000000   180.000000    -0.000000    -0.707107     0.707107     0.000000     0.000000     0.000000
   23    -1.000000   180.000000     0.707107    -0.707107     0.000000     0.000000     0.000000     0.000000
   24    -1.000000   180.000000     0.707107     0.000000    -0.707107     0.000000     0.000000     0.000000
   25    -1.000000     0.000000     1.000000     0.000000     0.000000     0.250000     0.250000     0.250000
   26    -1.000000   120.000000    -0.577350    -0.577350    -0.577350     0.250000     0.250000     0.250000
   27    -1.000000   120.000000     0.577350     0.577350     0.577350     0.250000     0.250000     0.250000
   28     1.000000    90.000000    -0.000000    -0.000000    -1.000000     0.250000     0.250000     0.250000
   29     1.000000   180.000000     0.000000     0.707107     0.707107     0.250000     0.250000     0.250000
   30     1.000000    90.000000    -0.000000     1.000000    -0.000000     0.250000     0.250000     0.250000
   31    -1.000000   180.000000    -0.000000     0.000000     1.000000     0.250000     0.250000     0.250000
   32    -1.000000   120.000000    -0.577350     0.577350     0.577350     0.250000     0.250000     0.250000
   33    -1.000000   120.000000    -0.577350     0.577350    -0.577350     0.250000     0.250000     0.250000
   34     1.000000    90.000000     0.000000     0.000000     1.000000     0.250000     0.250000     0.250000
   35     1.000000    90.000000    -1.000000     0.000000     0.000000     0.250000     0.250000     0.250000
   36     1.000000   180.000000     0.707107     0.000000     0.707107     0.250000     0.250000     0.250000
   37    -1.000000   120.000000     0.577350    -0.577350     0.577350     0.250000     0.250000     0.250000
   38    -1.000000   120.000000    -0.577350    -0.577350     0.577350     0.250000     0.250000     0.250000
   39    -1.000000   180.000000     1.000000     0.000000     0.000000     0.250000     0.250000     0.250000
   40     1.000000    90.000000     0.000000    -1.000000     0.000000     0.250000     0.250000     0.250000
   41     1.000000   180.000000     0.707107     0.707107    -0.000000     0.250000     0.250000     0.250000
   42     1.000000    90.000000     1.000000     0.000000     0.000000     0.250000     0.250000     0.250000
   43    -1.000000   120.000000     0.577350    -0.577350    -0.577350     0.250000     0.250000     0.250000
   44    -1.000000   180.000000     0.000000     1.000000     0.000000     0.250000     0.250000     0.250000
   45    -1.000000   120.000000     0.577350     0.577350    -0.577350     0.250000     0.250000     0.250000
   46     1.000000   180.000000    -0.000000    -0.707107     0.707107     0.250000     0.250000     0.250000
   47     1.000000   180.000000     0.707107    -0.707107     0.000000     0.250000     0.250000     0.250000
   48     1.000000   180.000000     0.707107     0.000000    -0.707107     0.250000     0.250000     0.250000
 
 Subroutine IBZKPT returns following result:
 ===========================================
 
 Found     60 irreducible k-points:
 
 Following reciprocal coordinates:
            Coordinates               Weight
  0.062500  0.062500  0.062500     96.000000
  0.187500  0.062500  0.062500    288.000000
  0.312500  0.062500  0.062500    288.000000
  0.437500  0.062500  0.062500    288.000000
 -0.437500  0.062500  0.062500    288.000000
 -0.312500  0.062500  0.062500    288.000000
 -0.187500  0.062500  0.062500    288.000000
 -0.062500  0.062500  0.062500    288.000000
  0.187500  0.187500  0.062500    288.000000
  0.312500  0.187500  0.062500    576.000000
  0.437500  0.187500  0.062500    576.000000
 -0.437500  0.187500  0.062500    576.000000
 -0.312500  0.187500  0.062500    576.000000
 -0.187500  0.187500  0.062500    576.000000
 -0.062500  0.187500  0.062500    576.000000
  0.312500  0.312500  0.062500    288.000000
  0.437500  0.312500  0.062500    576.000000
 -0.437500  0.312500  0.062500    576.000000
 -0.312500  0.312500  0.062500    576.000000
 -0.187500  0.312500  0.062500    576.000000
 -0.062500  0.312500  0.062500    576.000000
  0.437500  0.437500  0.062500    288.000000
 -0.437500  0.437500  0.062500    576.000000
 -0.312500  0.437500  0.062500    576.000000
 -0.187500  0.437500  0.062500    576.000000
 -0.062500  0.437500  0.062500    576.000000
 -0.437500 -0.437500  0.062500    288.000000
 -0.312500 -0.437500  0.062500    576.000000
 -0.187500 -0.437500  0.062500    576.000000
 -0.312500 -0.312500  0.062500    288.000000
 -0.187500 -0.312500  0.062500    576.000000
 -0.187500 -0.187500  0.062500    288.000000
  0.187500  0.187500  0.187500     96.000000
  0.312500  0.187500  0.187500    288.000000
  0.437500  0.187500  0.187500    288.000000
 -0.437500  0.187500  0.187500    288.000000
 -0.312500  0.187500  0.187500    288.000000
 -0.187500  0.187500  0.187500    288.000000
  0.312500  0.312500  0.187500    288.000000
  0.437500  0.312500  0.187500    576.000000
 -0.437500  0.312500  0.187500    576.000000
 -0.312500  0.312500  0.187500    576.000000
 -0.187500  0.312500  0.187500    576.000000
  0.437500  0.437500  0.187500    288.000000
 -0.437500  0.437500  0.187500    576.000000
 -0.312500  0.437500  0.187500    576.000000
 -0.187500  0.437500  0.187500    576.000000
 -0.437500 -0.437500  0.187500    288.000000
 -0.312500 -0.437500  0.187500    576.000000
 -0.312500 -0.312500  0.187500    288.000000
  0.312500  0.312500  0.312500     96.000000
  0.437500  0.312500  0.312500    288.000000
 -0.437500  0.312500  0.312500    288.000000
 -0.312500  0.312500  0.312500    288.000000
  0.437500  0.437500  0.312500    288.000000
 -0.437500  0.437500  0.312500    576.000000
 -0.312500  0.437500  0.312500    576.000000
 -0.437500 -0.437500  0.312500    288.000000
  0.437500  0.437500  0.437500     96.000000
 -0.437500  0.437500  0.437500    288.000000
 
 Following cartesian coordinates:
            Coordinates               Weight
  0.011315  0.011315  0.011315     96.000000
 -0.011315  0.033946  0.033946    288.000000
 -0.033946  0.056577  0.056577    288.000000
 -0.056577  0.079208  0.079208    288.000000
  0.101839 -0.079208 -0.079208    288.000000
  0.079208 -0.056577 -0.056577    288.000000
  0.056577 -0.033946 -0.033946    288.000000
  0.033946 -0.011315 -0.011315    288.000000
  0.011315  0.011315  0.056577    288.000000
 -0.011315  0.033946  0.079208    576.000000
 -0.033946  0.056577  0.101839    576.000000
  0.124470 -0.101839 -0.056577    576.000000
  0.101839 -0.079208 -0.033946    576.000000
  0.079208 -0.056577 -0.011315    576.000000
  0.056577 -0.033946  0.011315    576.000000
  0.011315  0.011315  0.101839    288.000000
 -0.011315  0.033946  0.124470    576.000000
  0.147101 -0.124470 -0.033946    576.000000
  0.124470 -0.101839 -0.011315    576.000000
  0.101839 -0.079208  0.011315    576.000000
  0.079208 -0.056577  0.033946    576.000000
  0.011315  0.011315  0.147101    288.000000
  0.169732 -0.147101 -0.011315    576.000000
  0.147101 -0.124470  0.011315    576.000000
  0.124470 -0.101839  0.033946    576.000000
  0.101839 -0.079208  0.056577    576.000000
  0.011315  0.011315 -0.169732    288.000000
 -0.011315  0.033946 -0.147101    576.000000
 -0.033946  0.056577 -0.124470    576.000000
  0.011315  0.011315 -0.124470    288.000000
 -0.011315  0.033946 -0.101839    576.000000
  0.011315  0.011315 -0.079208    288.000000
  0.033946  0.033946  0.033946     96.000000
  0.011315  0.056577  0.056577    288.000000
 -0.011315  0.079208  0.079208    288.000000
  0.147101 -0.079208 -0.079208    288.000000
  0.124470 -0.056577 -0.056577    288.000000
  0.101839 -0.033946 -0.033946    288.000000
  0.033946  0.033946  0.079208    288.000000
  0.011315  0.056577  0.101839    576.000000
  0.169732 -0.101839 -0.056577    576.000000
  0.147101 -0.079208 -0.033946    576.000000
  0.124470 -0.056577 -0.011315    576.000000
  0.033946  0.033946  0.124470    288.000000
  0.192363 -0.124470 -0.033946    576.000000
  0.169732 -0.101839 -0.011315    576.000000
  0.147101 -0.079208  0.011315    576.000000
  0.033946  0.033946 -0.192363    288.000000
  0.011315  0.056577 -0.169732    576.000000
  0.033946  0.033946 -0.147101    288.000000
  0.056577  0.056577  0.056577     96.000000
  0.033946  0.079208  0.079208    288.000000
  0.192363 -0.079208 -0.079208    288.000000
  0.169732 -0.056577 -0.056577    288.000000
  0.056577  0.056577  0.101839    288.000000
  0.214994 -0.101839 -0.056577    576.000000
  0.192363 -0.079208 -0.033946    576.000000
  0.056577  0.056577 -0.214994    288.000000
  0.079208  0.079208  0.079208     96.000000
  0.237625 -0.079208 -0.079208    288.000000
 


--------------------------------------------------------------------------------------------------------




 Dimension of arrays:
   k-points           NKPTS =     60   k-points in BZ     NKDIM =     60   number of bands    NBANDS=      8
   number of dos      NEDOS =    301   number of ions     NIONS =      2
   non local maximal  LDIM  =      4   non local SUM 2l+1 LMDIM =      8
   total plane-waves  NPLWV =   5832
   max r-space proj   IRMAX =      1   max aug-charges    IRDMAX=   4828
   dimension x,y,z NGX =    18 NGY =   18 NGZ =   18
   dimension x,y,z NGXF=    36 NGYF=   36 NGZF=   36
   support grid    NGXF=    36 NGYF=   36 NGZF=   36
   ions per type =               2
   NGX,Y,Z   is equivalent  to a cutoff of   7.66,  7.66,  7.66 a.u.
   NGXF,Y,Z  is equivalent  to a cutoff of  15.32, 15.32, 15.32 a.u.

 SYSTEM =  unknown system                          
 POSCAR =  Si2                                     

 Startparameter for this run:
   NWRITE =      2    write-flag & timer
   PREC   = normal    normal or accurate (medium, high low for compatibility)
   ISTART =      0    job   : 0-new  1-cont  2-samecut
   ICHARG =      2    charge: 1-file 2-atom 10-const
   ISPIN  =      1    spin polarized calculation?
   LNONCOLLINEAR =      F non collinear calculations
   LSORBIT =      F    spin-orbit coupling
   INIWAV =      1    electr: 0-lowe 1-rand  2-diag
   LASPH  =      F    aspherical Exc in radial PAW
   METAGGA=      F    non-selfconsistent MetaGGA calc.

 Electronic Relaxation 1
   ENCUT  =  350.0 eV  25.72 Ry    5.07 a.u.   5.96  5.96  5.96*2*pi/ulx,y,z
   ENINI  =  350.0     initial cutoff
   ENAUG  =  322.1 eV  augmentation charge cutoff
   NELM   =     60;   NELMIN=  2; NELMDL= -5     # of ELM steps 
   EDIFF  = 0.4E-03   stopping-criterion for ELM
   LREAL  =      F    real-space projection
   NLSPLINE    = F    spline interpolate recip. space projectors
   LCOMPAT=      F    compatible to vasp.4.4
   GGA_COMPAT  = T    GGA compatible to vasp.4.4-vasp.4.6
   LMAXPAW     = -100 max onsite density
   LMAXMIX     =    2 max onsite mixed and CHGCAR
   VOSKOWN=      0    Vosko Wilk Nusair interpolation
   ROPT   =    0.00000
 Ionic relaxation
   EDIFFG = -.1E-01   stopping-criterion for IOM
   NSW    =     15    number of steps for IOM
   NBLOCK =      1;   KBLOCK =     15    inner block; outer block 
   IBRION =      2    ionic relax: 0-MD 1-quasi-New 2-CG
   NFREE  =      1    steps in history (QN), initial steepest desc. (CG)
   ISIF   =      2    stress and relaxation
   IWAVPR =     11    prediction:  0-non 1-charg 2-wave 3-comb
   ISYM   =      2    0-nonsym 1-usesym 2-fastsym
   LCORR  =      T    Harris-Foulkes like correction to forces

   POTIM  = 0.5000    time-step for ionic-motion
   TEIN   =    0.0    initial temperature
   TEBEG  =    0.0;   TEEND  =   0.0 temperature during run
   SMASS  =  -3.00    Nose mass-parameter (am)
   estimated Nose-frequenzy (Omega)   =  0.10E-29 period in steps =****** mass=  -0.349E-27a.u.
   SCALEE = 1.0000    scale energy and forces
   NPACO  =    256;   APACO  = 16.0  distance and # of slots for P.C.
   PSTRESS=    0.0 pullay stress

  Mass of Ions in am
   POMASS =  28.09
  Ionic Valenz
   ZVAL   =   4.00
  Atomic Wigner-Seitz radii
   RWIGS  =  -1.00
  virtual crystal weights 
   VCA    =   1.00
   NELECT =       8.0000    total number of electrons
   NUPDOWN=      -1.0000    fix difference up-down

 DOS related values:
   EMIN   =  10.00;   EMAX   =-10.00  energy-range for DOS
   EFERMI =   0.00
   ISMEAR =     0;   SIGMA  =   0.20  broadening in eV -4-tet -1-fermi 0-gaus

 Electronic relaxation 2 (details)
   IALGO  =     38    algorithm
   LDIAG  =      T    sub-space diagonalisation (order eigenvalues)
   LSUBROT=      F    optimize rotation matrix (better conditioning)
   TURBO    =      0    0=normal 1=particle mesh
   IRESTART =      0    0=no restart 2=restart with 2 vectors
   NREBOOT  =      0    no. of reboots
   NMIN     =      0    reboot dimension
   EREF     =   0.00    reference energy to select bands
   IMIX   =      4    mixing-type and parameters
     AMIX     =   0.40;   BMIX     =  1.00
     AMIX_MAG =   1.60;   BMIX_MAG =  1.00
     AMIN     =   0.10
     WC   =   100.;   INIMIX=   1;  MIXPRE=   1;  MAXMIX= -45

 Intra band minimization:
   WEIMIN = 0.0010     energy-eigenvalue tresh-hold
   EBREAK =  0.13E-04  absolut break condition
   DEPER  =   0.30     relativ break condition  

   TIME   =   0.40     timestep for ELM

  volume/ion in A,a.u.               =      21.06       142.14
  Fermi-wavevector in a.u.,A,eV,Ry     =   0.940987  1.778208 12.047374  0.885457
  Thomas-Fermi vector in A             =   2.068454
 
 Write flags
   LWAVE        =      T    write WAVECAR
   LDOWNSAMPLE  =      F    k-point downsampling of WAVECAR
   LCHARG       =      T    write CHGCAR
   LVTOT        =      F    write LOCPOT, total local potential
   LVHAR        =      F    write LOCPOT, Hartree potential only
   LELF         =      F    write electronic localiz. function (ELF)
   LORBIT       =      0    0 simple, 1 ext, 2 COOP (PROOUT), +10 PAW based schemes


 Dipole corrections
   LMONO  =      F    monopole corrections only (constant potential shift)
   LDIPOL =      F    correct potential (dipole corrections)
   IDIPOL =      0    1-x, 2-y, 3-z, 4-all directions 
   EPSILON=  1.0000000 bulk dielectric constant

 Exchange correlation treatment:
   GGA     =    --    GGA type
   LEXCH   =     8    internal setting for exchange type
   VOSKOWN=      0    Vosko Wilk Nusair interpolation
   LHFCALC =     F    Hartree Fock is set to
   LHFONE  =     F    Hartree Fock one center treatment
   AEXX    =    0.0000 exact exchange contribution

 Linear response parameters
   LEPSILON=     F    determine dielectric tensor
   LRPA    =     F    only Hartree local field effects (RPA)
   LNABLA  =     F    use nabla operator in PAW spheres
   LVEL    =     F    velocity operator in full k-point grid
   LINTERFAST=   F  fast interpolation
   KINTER  =     0    interpolate to denser k-point grid
   CSHIFT  =0.1000    complex shift for real part using Kramers Kronig
   OMEGAMAX=  -1.0    maximum frequency
   DEG_THRESHOLD= 0.2000000E-02 threshold for treating states as degnerate
   RTIME   =   -0.100 relaxation time in fs
  (WPLASMAI=    0.000 imaginary part of plasma frequency in eV, 0.658/RTIME)
   DFIELD  = 0.0000000 0.0000000 0.0000000 field for delta impulse in time
 
 Orbital magnetization related:
   ORBITALMAG=     F  switch on orbital magnetization
   LCHIMAG   =     F  perturbation theory with respect to B field
   DQ        =  0.001000  dq finite difference perturbation B field
   LLRAUG    =     F  two centre corrections for induced B field



--------------------------------------------------------------------------------------------------------


 conjugate gradient relaxation of ions
 charge density and potential will be updated during run
 non-spin polarized calculation
 Variant of blocked Davidson
 Davidson routine will perform the subspace rotation
 perform sub-space diagonalisation
    after iterative eigenvector-optimisation
 modified Broyden-mixing scheme, WC =      100.0
 initial mixing is a Kerker type mixing with AMIX =  0.4000 and BMIX =      1.0000
 Hartree-type preconditioning will be used
 using additional bands            4
 reciprocal scheme for non local part
 use partial core corrections
 calculate Harris-corrections to forces 
   (improved forces if not selfconsistent)
 use gradient corrections 
 use of overlap-Matrix (Vanderbilt PP)
 Gauss-broadening in eV      SIGMA  =   0.20


--------------------------------------------------------------------------------------------------------


  energy-cutoff  :      350.00
  volume of cell :       42.13
      direct lattice vectors                 reciprocal lattice vectors
     0.000000000  2.761708000  2.761708000    -0.181047381  0.181047381  0.181047381
     2.761708000  0.000000000  2.761708000     0.181047381 -0.181047381  0.181047381
     2.761708000  2.761708000  0.000000000     0.181047381  0.181047381 -0.181047381

  length of vectors
     3.905644909  3.905644909  3.905644909     0.313583262  0.313583262  0.313583262


 
 k-points in units of 2pi/SCALE and weight: Automatic kpoint scheme                 
   0.01131546  0.01131546  0.01131546       0.004
  -0.01131546  0.03394638  0.03394638       0.012
  -0.03394638  0.05657731  0.05657731       0.012
  -0.05657731  0.07920823  0.07920823       0.012
   0.10183915 -0.07920823 -0.07920823       0.012
   0.07920823 -0.05657731 -0.05657731       0.012
   0.05657731 -0.03394638 -0.03394638       0.012
   0.03394638 -0.01131546 -0.01131546       0.012
   0.01131546  0.01131546  0.05657731       0.012
  -0.01131546  0.03394638  0.07920823       0.023
  -0.03394638  0.05657731  0.10183915       0.023
   0.12447007 -0.10183915 -0.05657731       0.023
   0.10183915 -0.07920823 -0.03394638       0.023
   0.07920823 -0.05657731 -0.01131546       0.023
   0.05657731 -0.03394638  0.01131546       0.023
   0.01131546  0.01131546  0.10183915       0.012
  -0.01131546  0.03394638  0.12447007       0.023
   0.14710100 -0.12447007 -0.03394638       0.023
   0.12447007 -0.10183915 -0.01131546       0.023
   0.10183915 -0.07920823  0.01131546       0.023
   0.07920823 -0.05657731  0.03394638       0.023
   0.01131546  0.01131546  0.14710100       0.012
   0.16973192 -0.14710100 -0.01131546       0.023
   0.14710100 -0.12447007  0.01131546       0.023
   0.12447007 -0.10183915  0.03394638       0.023
   0.10183915 -0.07920823  0.05657731       0.023
   0.01131546  0.01131546 -0.16973192       0.012
  -0.01131546  0.03394638 -0.14710100       0.023
  -0.03394638  0.05657731 -0.12447007       0.023
   0.01131546  0.01131546 -0.12447007       0.012
  -0.01131546  0.03394638 -0.10183915       0.023
   0.01131546  0.01131546 -0.07920823       0.012
   0.03394638  0.03394638  0.03394638       0.004
   0.01131546  0.05657731  0.05657731       0.012
  -0.01131546  0.07920823  0.07920823       0.012
   0.14710100 -0.07920823 -0.07920823       0.012
   0.12447007 -0.05657731 -0.05657731       0.012
   0.10183915 -0.03394638 -0.03394638       0.012
   0.03394638  0.03394638  0.07920823       0.012
   0.01131546  0.05657731  0.10183915       0.023
   0.16973192 -0.10183915 -0.05657731       0.023
   0.14710100 -0.07920823 -0.03394638       0.023
   0.12447007 -0.05657731 -0.01131546       0.023
   0.03394638  0.03394638  0.12447007       0.012
   0.19236284 -0.12447007 -0.03394638       0.023
   0.16973192 -0.10183915 -0.01131546       0.023
   0.14710100 -0.07920823  0.01131546       0.023
   0.03394638  0.03394638 -0.19236284       0.012
   0.01131546  0.05657731 -0.16973192       0.023
   0.03394638  0.03394638 -0.14710100       0.012
   0.05657731  0.05657731  0.05657731       0.004
   0.03394638  0.07920823  0.07920823       0.012
   0.19236284 -0.07920823 -0.07920823       0.012
   0.16973192 -0.05657731 -0.05657731       0.012
   0.05657731  0.05657731  0.10183915       0.012
   0.21499376 -0.10183915 -0.05657731       0.023
   0.19236284 -0.07920823 -0.03394638       0.023
   0.05657731  0.05657731 -0.21499376       0.012
   0.07920823  0.07920823  0.07920823       0.004
   0.23762469 -0.07920823 -0.07920823       0.012
 
 k-points in reciprocal lattice and weights: Automatic kpoint scheme                 
   0.06250000  0.06250000  0.06250000       0.004
   0.18750000  0.06250000  0.06250000       0.012
   0.31250000  0.06250000  0.06250000       0.012
   0.43750000  0.06250000  0.06250000       0.012
  -0.43750000  0.06250000  0.06250000       0.012
  -0.31250000  0.06250000  0.06250000       0.012
  -0.18750000  0.06250000  0.06250000       0.012
  -0.06250000  0.06250000  0.06250000       0.012
   0.18750000  0.18750000  0.06250000       0.012
   0.31250000  0.18750000  0.06250000       0.023
   0.43750000  0.18750000  0.06250000       0.023
  -0.43750000  0.18750000  0.06250000       0.023
  -0.31250000  0.18750000  0.06250000       0.023
  -0.18750000  0.18750000  0.06250000       0.023
  -0.06250000  0.18750000  0.06250000       0.023
   0.31250000  0.31250000  0.06250000       0.012
   0.43750000  0.31250000  0.06250000       0.023
  -0.43750000  0.31250000  0.06250000       0.023
  -0.31250000  0.31250000  0.06250000       0.023
  -0.18750000  0.31250000  0.06250000       0.023
  -0.06250000  0.31250000  0.06250000       0.023
   0.43750000  0.43750000  0.06250000       0.012
  -0.43750000  0.43750000  0.06250000       0.023
  -0.31250000  0.43750000  0.06250000       0.023
  -0.18750000  0.43750000  0.06250000       0.023
  -0.06250000  0.43750000  0.06250000       0.023
  -0.43750000 -0.43750000  0.06250000       0.012
  -0.31250000 -0.43750000  0.06250000       0.023
  -0.18750000 -0.43750000  0.06250000       0.023
  -0.31250000 -0.31250000  0.06250000       0.012
  -0.18750000 -0.31250000  0.06250000       0.023
  -0.18750000 -0.18750000  0.06250000       0.012
   0.18750000  0.18750000  0.18750000       0.004
   0.31250000  0.18750000  0.18750000       0.012
   0.43750000  0.18750000  0.18750000       0.012
  -0.43750000  0.18750000  0.18750000       0.012
  -0.31250000  0.18750000  0.18750000       0.012
  -0.18750000  0.18750000  0.18750000       0.012
   0.31250000  0.31250000  0.18750000       0.012
   0.43750000  0.31250000  0.18750000       0.023
  -0.43750000  0.31250000  0.18750000       0.023
  -0.31250000  0.31250000  0.18750000       0.023
  -0.18750000  0.31250000  0.18750000       0.023
   0.43750000  0.43750000  0.18750000       0.012
  -0.43750000  0.43750000  0.18750000       0.023
  -0.31250000  0.43750000  0.18750000       0.023
  -0.18750000  0.43750000  0.18750000       0.023
  -0.43750000 -0.43750000  0.18750000       0.012
  -0.31250000 -0.43750000  0.18750000       0.023
  -0.31250000 -0.31250000  0.18750000       0.012
   0.31250000  0.31250000  0.31250000       0.004
   0.43750000  0.31250000  0.31250000       0.012
  -0.43750000  0.31250000  0.31250000       0.012
  -0.31250000  0.31250000  0.31250000       0.012
   0.43750000  0.43750000  0.31250000       0.012
  -0.43750000  0.43750000  0.31250000       0.023
  -0.31250000  0.43750000  0.31250000       0.023
  -0.43750000 -0.43750000  0.31250000       0.012
   0.43750000  0.43750000  0.43750000       0.004
  -0.43750000  0.43750000  0.43750000       0.012
 
 position of ions in fractional coordinates (direct lattice) 
   0.50000000  0.50000000  0.50000000
   0.75000000  0.75000000  0.75000000
 
 position of ions in cartesian coordinates  (Angst):
   2.76170800  2.76170800  2.76170800
   4.14256200  4.14256200  4.14256200
 


--------------------------------------------------------------------------------------------------------


 k-point  1 :   0.0625 0.0625 0.0625  plane waves:     615
 k-point  2 :   0.1875 0.0625 0.0625  plane waves:     617
 k-point  3 :   0.3125 0.0625 0.0625  plane waves:     623
 k-point  4 :   0.4375 0.0625 0.0625  plane waves:     617
 k-point  5 :  -0.4375 0.0625 0.0625  plane waves:     619
 k-point  6 :  -0.3125 0.0625 0.0625  plane waves:     616
 k-point  7 :  -0.1875 0.0625 0.0625  plane waves:     620
 k-point  8 :  -0.0625 0.0625 0.0625  plane waves:     619
 k-point  9 :   0.1875 0.1875 0.0625  plane waves:     617
 k-point 10 :   0.3125 0.1875 0.0625  plane waves:     621
 k-point 11 :   0.4375 0.1875 0.0625  plane waves:     624
 k-point 12 :  -0.4375 0.1875 0.0625  plane waves:     623
 k-point 13 :  -0.3125 0.1875 0.0625  plane waves:     625
 k-point 14 :  -0.1875 0.1875 0.0625  plane waves:     623
 k-point 15 :  -0.0625 0.1875 0.0625  plane waves:     620
 k-point 16 :   0.3125 0.3125 0.0625  plane waves:     627
 k-point 17 :   0.4375 0.3125 0.0625  plane waves:     625
 k-point 18 :  -0.4375 0.3125 0.0625  plane waves:     631
 k-point 19 :  -0.3125 0.3125 0.0625  plane waves:     631
 k-point 20 :  -0.1875 0.3125 0.0625  plane waves:     624
 k-point 21 :  -0.0625 0.3125 0.0625  plane waves:     622
 k-point 22 :   0.4375 0.4375 0.0625  plane waves:     628
 k-point 23 :  -0.4375 0.4375 0.0625  plane waves:     629
 k-point 24 :  -0.3125 0.4375 0.0625  plane waves:     630
 k-point 25 :  -0.1875 0.4375 0.0625  plane waves:     628
 k-point 26 :  -0.0625 0.4375 0.0625  plane waves:     620
 k-point 27 :  -0.4375-0.4375 0.0625  plane waves:     632
 k-point 28 :  -0.3125-0.4375 0.0625  plane waves:     632
 k-point 29 :  -0.1875-0.4375 0.0625  plane waves:     628
 k-point 30 :  -0.3125-0.3125 0.0625  plane waves:     630
 k-point 31 :  -0.1875-0.3125 0.0625  plane waves:     623
 k-point 32 :  -0.1875-0.1875 0.0625  plane waves:     620
 k-point 33 :   0.1875 0.1875 0.1875  plane waves:     628
 k-point 34 :   0.3125 0.1875 0.1875  plane waves:     623
 k-point 35 :   0.4375 0.1875 0.1875  plane waves:     622
 k-point 36 :  -0.4375 0.1875 0.1875  plane waves:     628
 k-point 37 :  -0.3125 0.1875 0.1875  plane waves:     628
 k-point 38 :  -0.1875 0.1875 0.1875  plane waves:     621
 k-point 39 :   0.3125 0.3125 0.1875  plane waves:     618
 k-point 40 :   0.4375 0.3125 0.1875  plane waves:     626
 k-point 41 :  -0.4375 0.3125 0.1875  plane waves:     635
 k-point 42 :  -0.3125 0.3125 0.1875  plane waves:     631
 k-point 43 :  -0.1875 0.3125 0.1875  plane waves:     634
 k-point 44 :   0.4375 0.4375 0.1875  plane waves:     626
 k-point 45 :  -0.4375 0.4375 0.1875  plane waves:     633
 k-point 46 :  -0.3125 0.4375 0.1875  plane waves:     630
 k-point 47 :  -0.1875 0.4375 0.1875  plane waves:     635
 k-point 48 :  -0.4375-0.4375 0.1875  plane waves:     632
 k-point 49 :  -0.3125-0.4375 0.1875  plane waves:     633
 k-point 50 :  -0.3125-0.3125 0.1875  plane waves:     631
 k-point 51 :   0.3125 0.3125 0.3125  plane waves:     613
 k-point 52 :   0.4375 0.3125 0.3125  plane waves:     622
 k-point 53 :  -0.4375 0.3125 0.3125  plane waves:     625
 k-point 54 :  -0.3125 0.3125 0.3125  plane waves:     634
 k-point 55 :   0.4375 0.4375 0.3125  plane waves:     620
 k-point 56 :  -0.4375 0.4375 0.3125  plane waves:     630
 k-point 57 :  -0.3125 0.4375 0.3125  plane waves:     635
 k-point 58 :  -0.4375-0.4375 0.3125  plane waves:     633
 k-point 59 :   0.4375 0.4375 0.4375  plane waves:     622
 k-point 60 :  -0.4375 0.4375 0.4375  plane waves:     623

 maximum and minimum number of plane-waves per node :       635      613

 maximum number of plane-waves:       635
 maximum index in each direction: 
   IXMAX=    6   IYMAX=    6   IZMAX=    5
   IXMIN=   -6   IYMIN=   -6   IZMIN=   -6


 serial   3D FFT for wavefunctions
 parallel 3D FFT for charge:
    minimum data exchange during FFTs selected (reduces bandwidth)


 total amount of memory used by VASP MPI-rank0    33921. kBytes
=======================================================================

   base      :      30000. kBytes
   nonl-proj :       2478. kBytes
   fftplans  :        247. kBytes
   grid      :        561. kBytes
   one-center:          6. kBytes
   wavefun   :        629. kBytes
 
     INWAV:  cpu time    0.0040: real time    0.0003
 Broyden mixing: mesh for mixing (old mesh)
   NGX = 11   NGY = 11   NGZ = 11
  (NGX  = 36   NGY  = 36   NGZ  = 36)
  gives a total of   1331 points

 initial charge density was supplied:
 charge density of overlapping atoms calculated
 number of electron       8.0000000 magnetization 
 keeping initial charge density in first step


--------------------------------------------------------------------------------------------------------


 Maximum index for augmentation-charges          650 (set IRDMAX)


--------------------------------------------------------------------------------------------------------


 First call to EWALD:  gamma=   0.509
 Maximum number of real-space cells 3x 3x 3
 Maximum number of reciprocal cells 3x 3x 3

    FEWALD:  cpu time    0.0080: real time    0.0075


--------------------------------------- Iteration      1(   1)  ---------------------------------------


    POTLOK:  cpu time    0.0400: real time    0.0470
    SETDIJ:  cpu time    0.0080: real time    0.0091
     EDDAV:  cpu time    0.8040: real time    0.8055
       DOS:  cpu time    0.0040: real time    0.0048
    --------------------------------------------
      LOOP:  cpu time    0.8560: real time    0.8671

 eigenvalue-minimisations  :   968
 total energy-change (2. order) : 0.3963054E+01  (-0.2680537E+03)
 number of electron       8.0000000 magnetization 
 augmentation part        8.0000000 magnetization 

 Free energy of the ion-electron system (eV)
  ---------------------------------------------------
  alpha Z        PSCENC =         3.19632219
  Ewald energy   TEWEN  =      -224.69789354
  -Hartree energ DENC   =       -11.78246868
  -exchange      EXHF   =         0.00000000
  -V(xc)+E(xc)   XCENC  =       -18.79995466
  PAW double counting   =        65.95520812      -30.76852678
  entropy T*S    EENTRO =        -0.01057949
  eigenvalues    EBANDS =        14.73969257
  atomic energy  EATOM  =       206.13125414
  Solvation  Ediel_sol  =         0.00000000
  ---------------------------------------------------
  free energy    TOTEN  =         3.96305387 eV

  energy without entropy =        3.97363335  energy(sigma->0) =        3.96834361


--------------------------------------------------------------------------------------------------------




--------------------------------------- Iteration      1(   2)  ---------------------------------------


     EDDAV:  cpu time    1.2160: real time    1.2244
       DOS:  cpu time    0.0040: real time    0.0034
    --------------------------------------------
      LOOP:  cpu time    1.2200: real time    1.2282

 eigenvalue-minimisations  :  1512
 total energy-change (2. order) :-0.1477570E+02  (-0.1408409E+02)
 number of electron       8.0000000 magnetization 
 augmentation part        8.0000000 magnetization 

 Free energy of the ion-electron system (eV)
  ---------------------------------------------------
  alpha Z        PSCENC =         3.19632219
  Ewald energy   TEWEN  =      -224.69789354
  -Hartree energ DENC   =       -11.78246868
  -exchange      EXHF   =         0.00000000
  -V(xc)+E(xc)   XCENC  =       -18.79995466
  PAW double counting   =        65.95520812      -30.76852678
  entropy T*S    EENTRO =        -0.00000105
  eigenvalues    EBANDS =        -0.04658444
  atomic energy  EATOM  =       206.13125414
  Solvation  Ediel_sol  =         0.00000000
  ---------------------------------------------------
  free energy    TOTEN  =       -10.81264470 eV

  energy without entropy =      -10.81264365  energy(sigma->0) =      -10.81264418


--------------------------------------------------------------------------------------------------------




--------------------------------------- Iteration      1(   3)  ---------------------------------------


     EDDAV:  cpu time    0.9760: real time    0.9877
       DOS:  cpu time    0.0040: real time    0.0044
    --------------------------------------------
      LOOP:  cpu time    0.9800: real time    0.9918

 eigenvalue-minimisations  :  1192
 total energy-change (2. order) :-0.1764089E+00  (-0.1764089E+00)
 number of electron       8.0000000 magnetization 
 augmentation part        8.0000000 magnetization 

 Free energy of the ion-electron system (eV)
  ---------------------------------------------------
  alpha Z        PSCENC =         3.19632219
  Ewald energy   TEWEN  =      -224.69789354
  -Hartree energ DENC   =       -11.78246868
  -exchange      EXHF   =         0.00000000
  -V(xc)+E(xc)   XCENC  =       -18.79995466
  PAW double counting   =        65.95520812      -30.76852678
  entropy T*S    EENTRO =        -0.00000062
  eigenvalues    EBANDS =        -0.22299375
  atomic energy  EATOM  =       206.13125414
  Solvation  Ediel_sol  =         0.00000000
  ---------------------------------------------------
  free energy    TOTEN  =       -10.98905359 eV

  energy without entropy =      -10.98905297  energy(sigma->0) =      -10.98905328


--------------------------------------------------------------------------------------------------------




--------------------------------------- Iteration      1(   4)  ---------------------------------------


     EDDAV:  cpu time    1.2880: real time    1.2962
       DOS:  cpu time    0.0040: real time    0.0034
    --------------------------------------------
      LOOP:  cpu time    1.2920: real time    1.2999

 eigenvalue-minimisations  :  1592
 total energy-change (2. order) :-0.7912900E-03  (-0.7912900E-03)
 number of electron       8.0000000 magnetization 
 augmentation part        8.0000000 magnetization 

 Free energy of the ion-electron system (eV)
  ---------------------------------------------------
  alpha Z        PSCENC =         3.19632219
  Ewald energy   TEWEN  =      -224.69789354
  -Hartree energ DENC   =       -11.78246868
  -exchange      EXHF   =         0.00000000
  -V(xc)+E(xc)   XCENC  =       -18.79995466
  PAW double counting   =        65.95520812      -30.76852678
  entropy T*S    EENTRO =        -0.00000061
  eigenvalues    EBANDS =        -0.22378505
  atomic energy  EATOM  =       206.13125414
  Solvation  Ediel_sol  =         0.00000000
  ---------------------------------------------------
  free energy    TOTEN  =       -10.98984488 eV

  energy without entropy =      -10.98984426  energy(sigma->0) =      -10.98984457


--------------------------------------------------------------------------------------------------------




--------------------------------------- Iteration      1(   5)  ---------------------------------------


     EDDAV:  cpu time    0.9640: real time    0.9749
       DOS:  cpu time    0.0040: real time    0.0033
    CHARGE:  cpu time    0.0640: real time    0.0629
    MIXING:  cpu time    0.0000: real time    0.0025
    --------------------------------------------
      LOOP:  cpu time    1.0320: real time    1.0447

 eigenvalue-minimisations  :  1184
 total energy-change (2. order) :-0.5888909E-06  (-0.5890250E-06)
 number of electron       7.9999993 magnetization 
 augmentation part       -0.4683313 magnetization 

 Broyden mixing:
  rms(total) = 0.28834E+00    rms(broyden)= 0.28832E+00
  rms(prec ) = 0.82462E+00
  weight for this iteration     100.00

 Free energy of the ion-electron system (eV)
  ---------------------------------------------------
  alpha Z        PSCENC =         3.19632219
  Ewald energy   TEWEN  =      -224.69789354
  -Hartree energ DENC   =       -11.78246868
  -exchange      EXHF   =         0.00000000
  -V(xc)+E(xc)   XCENC  =       -18.79995466
  PAW double counting   =        65.95520812      -30.76852678
  entropy T*S    EENTRO =        -0.00000061
  eigenvalues    EBANDS =        -0.22378564
  atomic energy  EATOM  =       206.13125414
  Solvation  Ediel_sol  =         0.00000000
  ---------------------------------------------------
  free energy    TOTEN  =       -10.98984547 eV

  energy without entropy =      -10.98984485  energy(sigma->0) =      -10.98984516


--------------------------------------------------------------------------------------------------------




--------------------------------------- Iteration      1(   6)  ---------------------------------------


    POTLOK:  cpu time    0.0280: real time    0.0376
    SETDIJ:  cpu time    0.0080: real time    0.0085
     EDDAV:  cpu time    0.9160: real time    0.9148
       DOS:  cpu time    0.0040: real time    0.0035
    CHARGE:  cpu time    0.0600: real time    0.0611
    MIXING:  cpu time    0.0000: real time    0.0019
    --------------------------------------------
      LOOP:  cpu time    1.0160: real time    1.0261

 eigenvalue-minimisations  :  1128
 total energy-change (2. order) : 0.1039938E+00  (-0.6624329E-02)
 number of electron       7.9999993 magnetization 
 augmentation part       -0.4631867 magnetization 

 Broyden mixing:
  rms(total) = 0.17212E+00    rms(broyden)= 0.17212E+00
  rms(prec ) = 0.48981E+00
  weight for this iteration     100.00

 eigenvalues of (default mixing * dielectric matrix)
  average eigenvalue GAMMA=   2.4611
  2.4611

 Free energy of the ion-electron system (eV)
  ---------------------------------------------------
  alpha Z        PSCENC =         3.19632219
  Ewald energy   TEWEN  =      -224.69789354
  -Hartree energ DENC   =       -13.19563738
  -exchange      EXHF   =         0.00000000
  -V(xc)+E(xc)   XCENC  =       -18.57763256
  PAW double counting   =        69.29306539      -34.19804205
  entropy T*S    EENTRO =        -0.00000352
  eigenvalues    EBANDS =         1.16271569
  atomic energy  EATOM  =       206.13125414
  Solvation  Ediel_sol  =         0.00000000
  ---------------------------------------------------
  free energy    TOTEN  =       -10.88585163 eV

  energy without entropy =      -10.88584811  energy(sigma->0) =      -10.88584987


--------------------------------------------------------------------------------------------------------




--------------------------------------- Iteration      1(   7)  ---------------------------------------


    POTLOK:  cpu time    0.0280: real time    0.0400
    SETDIJ:  cpu time    0.0080: real time    0.0084
     EDDAV:  cpu time    0.9840: real time    0.9809
       DOS:  cpu time    0.0000: real time    0.0034
    CHARGE:  cpu time    0.0600: real time    0.0605
    MIXING:  cpu time    0.0040: real time    0.0021
    --------------------------------------------
      LOOP:  cpu time    1.0840: real time    1.0952

 eigenvalue-minimisations  :  1216
 total energy-change (2. order) : 0.4929959E-01  (-0.1283190E-01)
 number of electron       7.9999993 magnetization 
 augmentation part       -0.4569954 magnetization 

 Broyden mixing:
  rms(total) = 0.14302E-01    rms(broyden)= 0.14301E-01
  rms(prec ) = 0.37008E-01
  weight for this iteration     100.00

 eigenvalues of (default mixing * dielectric matrix)
  average eigenvalue GAMMA=   2.4727
  2.4727  2.4727

 Free energy of the ion-electron system (eV)
  ---------------------------------------------------
  alpha Z        PSCENC =         3.19632219
  Ewald energy   TEWEN  =      -224.69789354
  -Hartree energ DENC   =       -15.51596932
  -exchange      EXHF   =         0.00000000
  -V(xc)+E(xc)   XCENC  =       -18.20524764
  PAW double counting   =        73.66347945      -38.68489111
  entropy T*S    EENTRO =        -0.00002601
  eigenvalues    EBANDS =         3.27641980
  atomic energy  EATOM  =       206.13125414
  Solvation  Ediel_sol  =         0.00000000
  ---------------------------------------------------
  free energy    TOTEN  =       -10.83655204 eV

  energy without entropy =      -10.83652603  energy(sigma->0) =      -10.83653903


--------------------------------------------------------------------------------------------------------




--------------------------------------- Iteration      1(   8)  ---------------------------------------


    POTLOK:  cpu time    0.0280: real time    0.0390
    SETDIJ:  cpu time    0.0080: real time    0.0087
     EDDAV:  cpu time    0.9200: real time    0.9200
       DOS:  cpu time    0.0040: real time    0.0034
    CHARGE:  cpu time    0.0600: real time    0.0603
    MIXING:  cpu time    0.0000: real time    0.0018
    --------------------------------------------
      LOOP:  cpu time    1.0200: real time    1.0335

 eigenvalue-minimisations  :  1136
 total energy-change (2. order) :-0.1329271E-02  (-0.3786825E-03)
 number of electron       7.9999993 magnetization 
 augmentation part       -0.4579319 magnetization 

 Broyden mixing:
  rms(total) = 0.25264E-02    rms(broyden)= 0.25256E-02
  rms(prec ) = 0.83552E-02
  weight for this iteration     100.00

 eigenvalues of (default mixing * dielectric matrix)
  average eigenvalue GAMMA=   2.1276
  1.3301  2.8139  2.2387

 Free energy of the ion-electron system (eV)
  ---------------------------------------------------
  alpha Z        PSCENC =         3.19632219
  Ewald energy   TEWEN  =      -224.69789354
  -Hartree energ DENC   =       -15.47962282
  -exchange      EXHF   =         0.00000000
  -V(xc)+E(xc)   XCENC  =       -18.20009788
  PAW double counting   =        72.79602930      -37.79043906
  entropy T*S    EENTRO =        -0.00002014
  eigenvalues    EBANDS =         3.20658648
  atomic energy  EATOM  =       206.13125414
  Solvation  Ediel_sol  =         0.00000000
  ---------------------------------------------------
  free energy    TOTEN  =       -10.83788131 eV

  energy without entropy =      -10.83786117  energy(sigma->0) =      -10.83787124


--------------------------------------------------------------------------------------------------------




--------------------------------------- Iteration      1(   9)  ---------------------------------------


    POTLOK:  cpu time    0.0280: real time    0.0378
    SETDIJ:  cpu time    0.0080: real time    0.0084
     EDDAV:  cpu time    0.6920: real time    0.6937
       DOS:  cpu time    0.0040: real time    0.0034
    --------------------------------------------
      LOOP:  cpu time    0.7320: real time    0.7431

 eigenvalue-minimisations  :   776
 total energy-change (2. order) :-0.1054533E-03  (-0.1073536E-04)
 number of electron       7.9999993 magnetization 
 augmentation part       -0.4579319 magnetization 

 Free energy of the ion-electron system (eV)
  ---------------------------------------------------
  alpha Z        PSCENC =         3.19632219
  Ewald energy   TEWEN  =      -224.69789354
  -Hartree energ DENC   =       -15.51960279
  -exchange      EXHF   =         0.00000000
  -V(xc)+E(xc)   XCENC  =       -18.19357921
  PAW double counting   =        72.77321899      -37.76729672
  entropy T*S    EENTRO =        -0.00001989
  eigenvalues    EBANDS =         3.23961007
  atomic energy  EATOM  =       206.13125414
  Solvation  Ediel_sol  =         0.00000000
  ---------------------------------------------------
  free energy    TOTEN  =       -10.83798676 eV

  energy without entropy =      -10.83796688  energy(sigma->0) =      -10.83797682


--------------------------------------------------------------------------------------------------------




 average (electrostatic) potential at core
  the test charge radii are     0.9892
  (the norm of the test charge is              1.0000)
       1 -83.8147       2 -83.8147
 
 
 
 E-fermi :   5.6725     XC(G=0):  -9.2145     alpha+bet :-11.3867


 k-point     1 :       0.0625    0.0625    0.0625
  band No.  band energies     occupation 
      1      -6.2446      2.00000
      2       4.7873      2.00000
      3       5.2433      1.99759
      4       5.2433      1.99759
      5       7.8561      0.00000
      6       7.9855      0.00000
      7       7.9855      0.00000
      8       8.5838      0.00000

 k-point     2 :       0.1875    0.0625    0.0625
  band No.  band energies     occupation 
      1      -5.9852      2.00000
      2       3.2979      2.00000
      3       4.4670      2.00000
      4       5.1266      1.99989
      5       7.8732      0.00000
      6       8.2245      0.00000
      7       8.4888      0.00000
      8      10.1060      0.00000

 k-point     3 :       0.3125    0.0625    0.0625
  band No.  band energies     occupation 
      1      -5.3600      2.00000
      2       1.1349      2.00000
      3       3.9883      2.00000
      4       4.6786      2.00000
      5       7.4204      0.00000
      6       8.7157      0.00000
      7       8.9915      0.00000
      8      11.7145      0.00000

 k-point     4 :       0.4375    0.0625    0.0625
  band No.  band energies     occupation 
      1      -4.4926      2.00000
      2      -0.6897      2.00000
      3       3.7734      2.00000
      4       4.2842      2.00000
      5       7.1076      0.00000
      6       8.7985      0.00000
      7       8.8121      0.00000
      8      13.0143      0.00000

 k-point     5 :      -0.4375    0.0625    0.0625
  band No.  band energies     occupation 
      1      -4.0668      2.00000
      2      -1.3607      2.00000
      3       3.8182      2.00000
      4       4.0743      2.00000
      5       7.0293      0.00000
      6       8.6156      0.00000
      7       8.8775      0.00000
      8      13.1154      0.00000

 k-point     6 :      -0.3125    0.0625    0.0625
  band No.  band energies     occupation 
      1      -4.7887      2.00000
      2      -0.1516      2.00000
      3       4.0954      2.00000
      4       4.0971      2.00000
      5       7.1974      0.00000
      6       8.6098      0.00000
      7       9.1169      0.00000
      8      12.1537      0.00000

 k-point     7 :      -0.1875    0.0625    0.0625
  band No.  band energies     occupation 
      1      -5.6049      2.00000
      2       1.8435      2.00000
      3       4.3675      2.00000
      4       4.5473      2.00000
      5       7.5621      0.00000
      6       8.4384      0.00000
      7       9.1476      0.00000
      8      10.9468      0.00000

 k-point     8 :      -0.0625    0.0625    0.0625
  band No.  band energies     occupation 
      1      -6.1142      2.00000
      2       4.0353      2.00000
      3       4.8347      2.00000
      4       4.9790      2.00000
      5       7.7042      0.00000
      6       8.1972      0.00000
      7       8.5435      0.00000
      8       9.3565      0.00000

 k-point     9 :       0.1875    0.1875    0.0625
  band No.  band energies     occupation 
      1      -5.8545      2.00000
      2       3.1407      2.00000
      3       4.2972      2.00000
      4       4.3674      2.00000
      5       7.2996      0.00000
      6       8.9200      0.00000
      7       9.3749      0.00000
      8       9.8339      0.00000

 k-point    10 :       0.3125    0.1875    0.0625
  band No.  band energies     occupation 
      1      -5.3473      2.00000
      2       1.6745      2.00000
      3       3.3578      2.00000
      4       4.1183      2.00000
      5       7.4618      0.00000
      6       9.0241      0.00000
      7       9.7708      0.00000
      8      10.1526      0.00000

 k-point    11 :       0.4375    0.1875    0.0625
  band No.  band energies     occupation 
      1      -4.5328      2.00000
      2      -0.1170      2.00000
      3       2.8647      2.00000
      4       3.7259      2.00000
      5       7.6390      0.00000
      6       9.0131      0.00000
      7      10.1807      0.00000
      8      10.4864      0.00000

 k-point    12 :      -0.4375    0.1875    0.0625
  band No.  band energies     occupation 
      1      -3.8061      2.00000
      2      -1.2758      2.00000
      3       2.5807      2.00000
      4       3.6374      2.00000
      5       7.6902      0.00000
      6       8.7491      0.00000
      7      10.0454      0.00000
      8      12.4334      0.00000

 k-point    13 :      -0.3125    0.1875    0.0625
  band No.  band energies     occupation 
      1      -4.2419      2.00000
      2      -0.6160      2.00000
      3       2.5157      2.00000
      4       3.9101      2.00000
      5       7.9383      0.00000
      6       8.6844      0.00000
      7       9.9855      0.00000
      8      11.7095      0.00000

 k-point    14 :      -0.1875    0.1875    0.0625
  band No.  band energies     occupation 
      1      -5.1081      2.00000
      2       1.0471      2.00000
      3       2.8215      2.00000
      4       4.3977      2.00000
      5       8.2513      0.00000
      6       8.5746      0.00000
      7       9.8582      0.00000
      8      10.3544      0.00000

 k-point    15 :      -0.0625    0.1875    0.0625
  band No.  band energies     occupation 
      1      -5.7285      2.00000
      2       2.4921      2.00000
      3       3.9095      2.00000
      4       4.7567      2.00000
      5       7.8340      0.00000
      6       8.4173      0.00000
      7       9.1940      0.00000
      8      10.3715      0.00000

 k-point    16 :       0.3125    0.3125    0.0625
  band No.  band energies     occupation 
      1      -4.9594      2.00000
      2       1.1616      2.00000
      3       3.2215      2.00000
      4       3.3391      2.00000
      5       6.5172      0.00000
      6       8.1515      0.00000
      7      11.1707      0.00000
      8      11.3257      0.00000

 k-point    17 :       0.4375    0.3125    0.0625
  band No.  band energies     occupation 
      1      -4.2332      2.00000
      2      -0.0402      2.00000
      3       2.4645      2.00000
      4       3.0058      2.00000
      5       6.8255      0.00000
      6       7.9940      0.00000
      7      11.1365      0.00000
      8      12.2891      0.00000

 k-point    18 :      -0.4375    0.3125    0.0625
  band No.  band energies     occupation 
      1      -3.3715      2.00000
      2      -1.1913      2.00000
      3       1.6544      2.00000
      4       2.9748      2.00000
      5       7.0591      0.00000
      6       9.6098      0.00000
      7      10.7221      0.00000
      8      12.2019      0.00000

 k-point    19 :      -0.3125    0.3125    0.0625
  band No.  band energies     occupation 
      1      -3.4423      2.00000
      2      -1.0991      2.00000
      3       1.3179      2.00000
      4       3.3058      2.00000
      5       7.4434      0.00000
      6      10.3039      0.00000
      7      11.5488      0.00000
      8      11.9061      0.00000

 k-point    20 :      -0.1875    0.3125    0.0625
  band No.  band energies     occupation 
      1      -4.3035      2.00000
      2      -0.1674      2.00000
      3       1.8947      2.00000
      4       3.8683      2.00000
      5       8.0319      0.00000
      6       9.2262      0.00000
      7      10.5977      0.00000
      8      10.9048      0.00000

 k-point    21 :      -0.0625    0.3125    0.0625
  band No.  band energies     occupation 
      1      -4.9994      2.00000
      2       0.4767      2.00000
      3       3.4589      2.00000
      4       4.3008      2.00000
      5       7.6990      0.00000
      6       8.6143      0.00000
      7       9.4544      0.00000
      8      11.1121      0.00000

 k-point    22 :       0.4375    0.4375    0.0625
  band No.  band energies     occupation 
      1      -3.6001      2.00000
      2      -0.8804      2.00000
      3       2.5577      2.00000
      4       2.7639      2.00000
      5       6.1431      0.00087
      6       6.8482      0.00000
      7      13.4029      0.00000
      8      13.4314      0.00000

 k-point    23 :      -0.4375    0.4375    0.0625
  band No.  band energies     occupation 
      1      -2.7222      2.00000
      2      -1.8399      2.00000
      3       2.0255      2.00000
      4       2.5321      2.00000
      5       6.5667      0.00000
      6       7.2741      0.00000
      7      13.1732      0.00000
      8      14.1309      0.00000

 k-point    24 :      -0.3125    0.4375    0.0625
  band No.  band energies     occupation 
      1      -2.8243      2.00000
      2      -1.6737      2.00000
      3       1.3280      2.00000
      4       2.8360      2.00000
      5       6.9182      0.00000
      6       9.4538      0.00000
      7      11.6892      0.00000
      8      12.7891      0.00000

 k-point    25 :      -0.1875    0.4375    0.0625
  band No.  band energies     occupation 
      1      -3.5580      2.00000
      2      -1.2473      2.00000
      3       1.8378      2.00000
      4       3.4151      2.00000
      5       7.5537      0.00000
      6       9.4663      0.00000
      7      10.9634      0.00000
      8      12.1911      0.00000

 k-point    26 :      -0.0625    0.4375    0.0625
  band No.  band energies     occupation 
      1      -4.1447      2.00000
      2      -1.0807      2.00000
      3       3.2826      2.00000
      4       3.9787      2.00000
      5       7.4897      0.00000
      6       8.5501      0.00000
      7       9.2918      0.00000
      8      12.7547      0.00000

 k-point    27 :      -0.4375   -0.4375    0.0625
  band No.  band energies     occupation 
      1      -2.7698      2.00000
      2      -1.8554      2.00000
      3       2.4245      2.00000
      4       2.6463      2.00000
      5       6.1458      0.00082
      6       6.4969      0.00000
      7      14.4518      0.00000
      8      14.5040      0.00000

 k-point    28 :      -0.3125   -0.4375    0.0625
  band No.  band energies     occupation 
      1      -3.5188      2.00000
      2      -0.9428      2.00000
      3       2.1758      2.00000
      4       2.6869      2.00000
      5       6.6474      0.00000
      6       7.5227      0.00000
      7      12.1290      0.00000
      8      13.4125      0.00000

 k-point    29 :      -0.1875   -0.4375    0.0625
  band No.  band energies     occupation 
      1      -3.9782      2.00000
      2      -0.6625      2.00000
      3       2.2197      2.00000
      4       3.2644      2.00000
      5       7.3224      0.00000
      6       9.7876      0.00000
      7       9.9544      0.00000
      8      11.1738      0.00000

 k-point    30 :      -0.3125   -0.3125    0.0625
  band No.  band energies     occupation 
      1      -4.3339      2.00000
      2       0.1343      2.00000
      3       2.8238      2.00000
      4       2.9967      2.00000
      5       6.2655      0.00003
      6       7.4127      0.00000
      7      12.2704      0.00000
      8      12.3653      0.00000

 k-point    31 :      -0.1875   -0.3125    0.0625
  band No.  band energies     occupation 
      1      -4.8464      2.00000
      2       0.8351      2.00000
      3       2.8673      2.00000
      4       3.4945      2.00000
      5       7.1037      0.00000
      6       8.6426      0.00000
      7      10.2180      0.00000
      8      11.1912      0.00000

 k-point    32 :      -0.1875   -0.1875    0.0625
  band No.  band energies     occupation 
      1      -5.4683      2.00000
      2       2.1731      2.00000
      3       3.7450      2.00000
      4       3.7803      2.00000
      5       6.8761      0.00000
      6       8.9502      0.00000
      7      10.1657      0.00000
      8      10.3222      0.00000

 k-point    33 :       0.1875    0.1875    0.1875
  band No.  band energies     occupation 
      1      -5.8578      2.00000
      2       2.5978      2.00000
      3       4.8167      2.00000
      4       4.8167      2.00000
      5       7.4213      0.00000
      6       8.5858      0.00000
      7       8.5858      0.00000
      8      10.7313      0.00000

 k-point    34 :       0.3125    0.1875    0.1875
  band No.  band energies     occupation 
      1      -5.4784      2.00000
      2       1.7627      2.00000
      3       3.3562      2.00000
      4       4.8300      2.00000
      5       8.0739      0.00000
      6       8.7086      0.00000
      7       8.9831      0.00000
      8      10.8933      0.00000

 k-point    35 :       0.4375    0.1875    0.1875
  band No.  band energies     occupation 
      1      -4.7567      2.00000
      2       0.4225      2.00000
      3       2.3112      2.00000
      4       4.3428      2.00000
      5       7.9691      0.00000
      6       9.4477      0.00000
      7       9.6323      0.00000
      8      11.1789      0.00000

 k-point    36 :      -0.4375    0.1875    0.1875
  band No.  band energies     occupation 
      1      -3.8982      2.00000
      2      -1.0079      2.00000
      3       2.1514      2.00000
      4       3.8306      2.00000
      5       7.5078      0.00000
      6       9.5927      0.00000
      7       9.8473      0.00000
      8      13.0099      0.00000

 k-point    37 :      -0.3125    0.1875    0.1875
  band No.  band energies     occupation 
      1      -3.8827      2.00000
      2      -1.0356      2.00000
      3       2.4371      2.00000
      4       3.5247      2.00000
      5       7.2516      0.00000
      6       9.6514      0.00000
      7      10.1851      0.00000
      8      11.1311      0.00000

 k-point    38 :      -0.1875    0.1875    0.1875
  band No.  band energies     occupation 
      1      -4.7396      2.00000
      2       0.4194      2.00000
      3       3.0325      2.00000
      4       3.5037      2.00000
      5       7.1893      0.00000
      6       9.3125      0.00000
      7       9.9423      0.00000
      8      10.5337      0.00000

 k-point    39 :       0.3125    0.3125    0.1875
  band No.  band energies     occupation 
      1      -5.2300      2.00000
      2       1.1192      2.00000
      3       3.8281      2.00000
      4       3.9086      2.00000
      5       7.5515      0.00000
      6       8.8434      0.00000
      7       9.8052      0.00000
      8      10.2030      0.00000

 k-point    40 :       0.4375    0.3125    0.1875
  band No.  band energies     occupation 
      1      -4.6246      2.00000
      2       0.3498      2.00000
      3       2.3664      2.00000
      4       3.7177      2.00000
      5       8.0467      0.00000
      6       9.0259      0.00000
      7       9.5728      0.00000
      8      11.0200      0.00000

 k-point    41 :      -0.4375    0.3125    0.1875
  band No.  band energies     occupation 
      1      -3.7659      2.00000
      2      -0.7265      2.00000
      3       1.6072      2.00000
      4       3.1739      2.00000
      5       8.4896      0.00000
      6       8.9671      0.00000
      7      10.2130      0.00000
      8      12.0899      0.00000

 k-point    42 :      -0.3125    0.3125    0.1875
  band No.  band energies     occupation 
      1      -3.2994      2.00000
      2      -1.3140      2.00000
      3       1.6049      2.00000
      4       2.8744      2.00000
      5       8.0388      0.00000
      6       9.2865      0.00000
      7      10.9774      0.00000
      8      12.2055      0.00000

 k-point    43 :      -0.1875    0.3125    0.1875
  band No.  band energies     occupation 
      1      -4.0387      2.00000
      2      -0.3507      2.00000
      3       2.0173      2.00000
      4       3.0458      2.00000
      5       7.7751      0.00000
      6       8.9748      0.00000
      7       9.7806      0.00000
      8      12.2069      0.00000

 k-point    44 :       0.4375    0.4375    0.1875
  band No.  band energies     occupation 
      1      -4.1440      2.00000
      2      -0.2900      2.00000
      3       2.3356      2.00000
      4       3.1833      2.00000
      5       6.8276      0.00000
      6       8.8103      0.00000
      7      10.9640      0.00000
      8      11.3378      0.00000

 k-point    45 :      -0.4375    0.4375    0.1875
  band No.  band energies     occupation 
      1      -3.3679      2.00000
      2      -1.0780      2.00000
      3       1.7863      2.00000
      4       2.5305      2.00000
      5       7.5808      0.00000
      6       8.5758      0.00000
      7      10.6557      0.00000
      8      13.3750      0.00000

 k-point    46 :      -0.3125    0.4375    0.1875
  band No.  band energies     occupation 
      1      -2.5906      2.00000
      2      -1.8137      2.00000
      3       1.4848      2.00000
      4       2.0499      2.00000
      5       8.6787      0.00000
      6       9.5998      0.00000
      7      10.2088      0.00000
      8      11.2039      0.00000

 k-point    47 :      -0.1875    0.4375    0.1875
  band No.  band energies     occupation 
      1      -3.1730      2.00000
      2      -1.2760      2.00000
      3       1.4726      2.00000
      4       2.5071      2.00000
      5       8.7745      0.00000
      6       9.1813      0.00000
      7       9.9095      0.00000
      8      12.3412      0.00000

 k-point    48 :      -0.4375   -0.4375    0.1875
  band No.  band energies     occupation 
      1      -2.7459      2.00000
      2      -1.7888      2.00000
      3       1.5845      2.00000
      4       2.8515      2.00000
      5       6.4138      0.00000
      6       8.2624      0.00000
      7      13.1012      0.00000
      8      13.2619      0.00000

 k-point    49 :      -0.3125   -0.4375    0.1875
  band No.  band energies     occupation 
      1      -2.6485      2.00000
      2      -1.8221      2.00000
      3       1.6748      2.00000
      4       2.2535      2.00000
      5       7.4813      0.00000
      6       8.3748      0.00000
      7      11.6377      0.00000
      8      12.7223      0.00000

 k-point    50 :      -0.3125   -0.3125    0.1875
  band No.  band energies     occupation 
      1      -3.4616      2.00000
      2      -1.0378      2.00000
      3       1.8375      2.00000
      4       2.9632      2.00000
      5       6.5568      0.00000
      6       8.4440      0.00000
      7      12.0969      0.00000
      8      12.2194      0.00000

 k-point    51 :       0.3125    0.3125    0.3125
  band No.  band energies     occupation 
      1      -5.1271      2.00000
      2       0.4547      2.00000
      3       4.4141      2.00000
      4       4.4141      2.00000
      5       6.9685      0.00000
      6       8.8326      0.00000
      7       8.8326      0.00000
      8      12.7703      0.00000

 k-point    52 :       0.4375    0.3125    0.3125
  band No.  band energies     occupation 
      1      -4.6642      2.00000
      2      -0.1142      2.00000
      3       2.9896      2.00000
      4       4.3279      2.00000
      5       7.7021      0.00000
      6       9.0456      0.00000
      7       9.0981      0.00000
      8      12.1849      0.00000

 k-point    53 :      -0.4375    0.3125    0.3125
  band No.  band energies     occupation 
      1      -3.9000      2.00000
      2      -0.6572      2.00000
      3       1.5293      2.00000
      4       3.7692      2.00000
      5       7.4465      0.00000
      6      10.4451      0.00000
      7      10.5908      0.00000
      8      11.9252      0.00000

 k-point    54 :      -0.3125    0.3125    0.3125
  band No.  band energies     occupation 
      1      -3.1100      2.00000
      2      -1.4236      2.00000
      3       1.2101      2.00000
      4       3.2418      2.00000
      5       6.8621      0.00000
      6      10.6715      0.00000
      7      11.6829      0.00000
      8      11.8899      0.00000

 k-point    55 :       0.4375    0.4375    0.3125
  band No.  band energies     occupation 
      1      -4.3623      2.00000
      2      -0.6527      2.00000
      3       3.3068      2.00000
      4       3.7865      2.00000
      5       7.4557      0.00000
      6       8.8009      0.00000
      7       9.5730      0.00000
      8      11.5580      0.00000

 k-point    56 :      -0.4375    0.4375    0.3125
  band No.  band energies     occupation 
      1      -3.7651      2.00000
      2      -1.0167      2.00000
      3       2.0495      2.00000
      4       3.3322      2.00000
      5       8.2287      0.00000
      6       8.5997      0.00000
      7      11.0342      0.00000
      8      11.3199      0.00000

 k-point    57 :      -0.3125    0.4375    0.3125
  band No.  band energies     occupation 
      1      -2.9756      2.00000
      2      -1.4926      2.00000
      3       1.2992      2.00000
      4       2.6466      2.00000
      5       7.9168      0.00000
      6      10.1158      0.00000
      7      10.8645      0.00000
      8      11.3681      0.00000

 k-point    58 :      -0.4375   -0.4375    0.3125
  band No.  band energies     occupation 
      1      -3.4205      2.00000
      2      -1.2938      2.00000
      3       1.6781      2.00000
      4       3.3382      2.00000
      5       7.0031      0.00000
      6      10.6283      0.00000
      7      10.9261      0.00000
      8      10.9418      0.00000

 k-point    59 :       0.4375    0.4375    0.4375
  band No.  band energies     occupation 
      1      -4.2740      2.00000
      2      -1.1341      2.00000
      3       4.1978      2.00000
      4       4.1978      2.00000
      5       6.7166      0.00000
      6       8.7127      0.00000
      7       8.7127      0.00000
      8      13.0195      0.00000

 k-point    60 :      -0.4375    0.4375    0.4375
  band No.  band energies     occupation 
      1      -3.9373      2.00000
      2      -1.3086      2.00000
      3       3.0023      2.00000
      4       3.9408      2.00000
      5       7.4673      0.00000
      6       8.8134      0.00000
      7       9.2738      0.00000
      8      13.3462      0.00000


--------------------------------------------------------------------------------------------------------


 soft charge-density along one line, spin component           1
         0         1         2         3         4         5         6         7         8         9
 total charge-density along one line
 
 pseudopotential strength for first ion, spin component:           1
 18.471  -0.000  -0.000  -0.000  -0.000   0.000   0.000   0.000
 -0.000   0.006   0.000   0.000   0.000  -0.000  -0.000  -0.000
 -0.000   0.000   4.184  -0.000  -0.000  -0.004   0.000   0.000
 -0.000   0.000  -0.000   4.184  -0.000   0.000  -0.004   0.000
 -0.000   0.000  -0.000  -0.000   4.184   0.000   0.000  -0.004
  0.000  -0.000  -0.004   0.000   0.000   0.005  -0.000  -0.000
  0.000  -0.000   0.000  -0.004   0.000  -0.000   0.005  -0.000
  0.000  -0.000   0.000   0.000  -0.004  -0.000  -0.000   0.005
 total augmentation occupancy for first ion, spin component:           1
  1.502  -0.719   0.000  -0.000   0.000  -0.000   0.000   0.000
 -0.719   0.695   0.000   0.000   0.000   0.000   0.000   0.000
 -0.000   0.000   0.996   0.000   0.000  -0.532   0.000   0.000
  0.000   0.000  -0.000   0.996   0.000   0.000  -0.532  -0.000
  0.000  -0.000   0.000  -0.000   0.996   0.000  -0.000  -0.532
  0.000  -0.000  -0.532   0.000   0.000   0.335   0.000   0.000
  0.000   0.000   0.000  -0.532   0.000   0.000   0.335  -0.000
  0.000   0.000   0.000   0.000  -0.532   0.000  -0.000   0.335


------------------------ aborting loop because EDIFF is reached ----------------------------------------


    CHARGE:  cpu time    0.0600: real time    0.0595
    FORLOC:  cpu time    0.0000: real time    0.0009
    FORNL :  cpu time    0.0240: real time    0.0242
    STRESS:  cpu time    0.2840: real time    0.2822
    FORCOR:  cpu time    0.0200: real time    0.0215
    FORHAR:  cpu time    0.0080: real time    0.0055
    MIXING:  cpu time    0.0000: real time    0.0015
    OFIELD:  cpu time    0.0000: real time    0.0005

  FORCE on cell =-STRESS in cart. coord.  units (eV):
  Direction    XX          YY          ZZ          XY          YZ          ZX
  --------------------------------------------------------------------------------------
  Alpha Z     3.19632     3.19632     3.19632
  Ewald     -74.89933   -74.89933   -74.89933    -0.00000     0.00000    -0.00000
  Hartree     5.17670     5.17670     5.17670     0.00000     0.00000     0.00000
  E(xc)     -25.07682   -25.07682   -25.07682    -0.00000    -0.00000    -0.00000
  Local     -29.96014   -29.96014   -29.96014     0.00004     0.00004     0.00004
  n-local    76.85964    79.40498    74.66399     1.01388    -1.10371     0.04610
  augment   -11.64866   -11.64866   -11.64866    -0.00003    -0.00003    -0.00003
  Kinetic    56.98925    55.32091    54.41872     0.83845    -0.93397     0.04741
  Fock        0.00000     0.00000     0.00000     0.00000     0.00000     0.00000
  -------------------------------------------------------------------------------------
  Total      -0.65943    -0.65943    -0.65943    -0.00000     0.00000     0.00000
  in kB     -25.07926   -25.07926   -25.07926    -0.00000     0.00000     0.00000
  external pressure =      -25.08 kB  Pullay stress =        0.00 kB


 VOLUME and BASIS-vectors are now :
 -----------------------------------------------------------------------------
  energy-cutoff  :      350.00
  volume of cell :       42.13
      direct lattice vectors                 reciprocal lattice vectors
     0.000000000  2.761708000  2.761708000    -0.181047381  0.181047381  0.181047381
     2.761708000  0.000000000  2.761708000     0.181047381 -0.181047381  0.181047381
     2.761708000  2.761708000  0.000000000     0.181047381  0.181047381 -0.181047381

  length of vectors
     3.905644909  3.905644909  3.905644909     0.313583262  0.313583262  0.313583262


 FORCES acting on ions
    electron-ion (+dipol)            ewald-force                    non-local-force                 convergence-correction
 -----------------------------------------------------------------------------------------------
   0.168E-05 0.168E-05 0.173E-05   -.370E-14 -.152E-14 0.129E-13   0.107E-16 0.246E-16 0.258E-16   -.482E-06 -.482E-06 -.482E-06
   -.168E-05 -.168E-05 -.173E-05   0.337E-14 0.161E-14 -.130E-13   -.962E-17 -.235E-16 -.182E-16   0.482E-06 0.482E-06 0.482E-06
 -----------------------------------------------------------------------------------------------
   -.714E-13 -.901E-13 -.585E-13   -.329E-15 0.890E-16 -.509E-16   0.110E-17 0.110E-17 0.755E-17   -.154E-14 -.324E-14 -.426E-15
 
 
 POSITION                                       TOTAL-FORCE (eV/Angst)
 -----------------------------------------------------------------------------------
      2.76171      2.76171      2.76171        -0.000000     -0.000000     -0.000000
      4.14256      4.14256      4.14256         0.000000      0.000000      0.000000
 -----------------------------------------------------------------------------------
    total drift:                               -0.000000     -0.000000     -0.000000


--------------------------------------------------------------------------------------------------------



  FREE ENERGIE OF THE ION-ELECTRON SYSTEM (eV)
  ---------------------------------------------------
  free  energy   TOTEN  =       -10.83798676 eV

  energy  without entropy=      -10.83796688  energy(sigma->0) =      -10.83797682
 


--------------------------------------------------------------------------------------------------------


    POTLOK:  cpu time    0.0400: real time    0.0590


--------------------------------------------------------------------------------------------------------




--------------------------------------------------------------------------------------------------------


  
 reached required accuracy - stopping structural energy minimisation
 writing wavefunctions
     LOOP+:  cpu time   10.9080: real time   12.1446
    4ORBIT:  cpu time    0.0000: real time    0.0000

 total amount of memory used by VASP MPI-rank0    33921. kBytes
=======================================================================

   base      :      30000. kBytes
   nonl-proj :       2478. kBytes
   fftplans  :        247. kBytes
   grid      :        561. kBytes
   one-center:          6. kBytes
   wavefun   :        629. kBytes
 
  
  
 General timing and accounting informations for this job:
 ========================================================
  
                  Total CPU time used (sec):       16.780
                            User time (sec):       14.624
                          System time (sec):        2.156
                         Elapsed time (sec):       21.328
  
                   Maximum memory used (kb):        9852.
                   Average memory used (kb):           0.
  
                          Minor page faults:        38218
                          Major page faults:           13
                 Voluntary context switches:        40383
