unknown system                          
   1.00000000000000     
     0.000000    2.715000    2.715000
     2.715000    0.000000    2.715000
     2.715000    2.715000    0.000000
   Si
     2
Direct
  0.500000  0.500000  0.500000
  0.750000  0.750000  0.750000
 
   24   24   24
 0.87044918749E+00 0.90769348912E+00 0.10246315361E+01 0.12358006329E+01 0.15625569596E+01
 0.20276800717E+01 0.26464541382E+01 0.34140855036E+01 0.42911729832E+01 0.51931823472E+01
 0.59940582379E+01 0.65518851510E+01 0.67524960858E+01 0.65519202536E+01 0.59941001962E+01
 0.51931822545E+01 0.42910805176E+01 0.34138802375E+01 0.26461752194E+01 0.20274217131E+01
 0.15624153736E+01 0.12358076847E+01 0.10247310298E+01 0.90778212590E+00 0.90769348912E+00
 0.96843973508E+00 0.10977963334E+01 0.13097632193E+01 0.16210699312E+01 0.20453861156E+01
 0.25852241646E+01 0.32221875448E+01 0.39080790745E+01 0.45624805263E+01 0.50835942533E+01
 0.53741950206E+01 0.53742142136E+01 0.50836536641E+01 0.45625622555E+01 0.39081189305E+01
 0.32221087991E+01 0.25850146759E+01 0.20451325775E+01 0.16209035435E+01 0.13097634861E+01
 0.10979350594E+01 0.96860458617E+00 0.90776512880E+00 0.10246315361E+01 0.10977963334E+01
 0.12296025122E+01 0.14320700253E+01 0.17165503826E+01 0.20883863118E+01 0.25405239007E+01
 0.30470173944E+01 0.35589969414E+01 0.40075614813E+01 0.43172471996E+01 0.44281415550E+01
 0.43172883755E+01 0.40076175980E+01 0.35590207125E+01 0.30469679117E+01 0.25404064906E+01
 0.20882623211E+01 0.17164976371E+01 0.14321269195E+01 0.12297438465E+01 0.10979535734E+01
 0.10247322187E+01 0.10013403283E+01 0.12358006329E+01 0.13097632193E+01 0.14320700253E+01
 0.16122468406E+01 0.18568070631E+01 0.21649695527E+01 0.25241953197E+01 0.29064721429E+01
 0.32677049502E+01 0.35534510146E+01 0.37121986179E+01 0.37121970090E+01 0.35534337781E+01
 0.32676502036E+01 0.29063810713E+01 0.25241099701E+01 0.21649512744E+01 0.18568887035E+01
 0.16124024698E+01 0.14322337508E+01 0.13098795608E+01 0.12358569668E+01 0.12014206381E+01
 0.12014060275E+01 0.15625569596E+01 0.16210699312E+01 0.17165503826E+01 0.18568070631E+01
 0.20452997343E+01 0.22779919977E+01 0.25405299844E+01 0.28066884161E+01 0.30401210690E+01
 0.32013203614E+01 0.32590047100E+01 0.32012182988E+01 0.30399727919E+01 0.28065709948E+01
 0.25404996109E+01 0.22780597152E+01 0.20454318515E+01 0.18569456370E+01 0.17166454797E+01
 0.16211053121E+01 0.15625511944E+01 0.15320932562E+01 0.15228147360E+01 0.15321075204E+01
 0.20276800717E+01 0.20453861156E+01 0.20883863118E+01 0.21649695527E+01 0.22779919977E+01
 0.24226481724E+01 0.25852215824E+01 0.27436382652E+01 0.28709849581E+01 0.29422246937E+01
 0.29421403745E+01 0.28707907300E+01 0.27434627458E+01 0.25851667111E+01 0.24227259624E+01
 0.22781297079E+01 0.21650642499E+01 0.20883730924E+01 0.20452770839E+01 0.20275433492E+01
 0.20243734324E+01 0.20257900132E+01 0.20258243083E+01 0.20244726754E+01 0.26464541382E+01
 0.25852241646E+01 0.25405239007E+01 0.25241953197E+01 0.25405299844E+01 0.25852215824E+01
 0.26464409174E+01 0.27078345182E+01 0.27528513419E+01 0.27692917890E+01 0.27527140774E+01
 0.27076487121E+01 0.26462995738E+01 0.25851599837E+01 0.25405330702E+01 0.25242198365E+01
 0.25405054892E+01 0.25851063393E+01 0.26462411340E+01 0.27076152160E+01 0.27527101554E+01
 0.27692979895E+01 0.27528573619E+01 0.27078456934E+01 0.34140855036E+01 0.32221875448E+01
 0.30470173944E+01 0.29064721429E+01 0.28066884161E+01 0.27436382652E+01 0.27078345182E+01
 0.26895075984E+01 0.26818661884E+01 0.26818000266E+01 0.26893498381E+01 0.27076562830E+01
 0.27434743083E+01 0.28065542564E+01 0.29063976726E+01 0.30470052429E+01 0.32221658862E+01
 0.34139648278E+01 0.35956395181E+01 0.37378406899E+01 0.38159508379E+01 0.38160405748E+01
 0.37380576782E+01 0.35958603074E+01 0.42911729832E+01 0.39080790745E+01 0.35589969414E+01
 0.32677049502E+01 0.30401210690E+01 0.28709849581E+01 0.27528513419E+01 0.26818661884E+01
 0.26579604638E+01 0.26817451401E+01 0.27526696418E+01 0.28708031677E+01 0.30399812693E+01
 0.32676523958E+01 0.35590478765E+01 0.39081642046E+01 0.42911806503E+01 0.46669509819E+01
 0.49851246658E+01 0.51983165178E+01 0.52733599112E+01 0.51984178448E+01 0.49852770253E+01
 0.46670584156E+01 0.51931823472E+01 0.45624805263E+01 0.40075614813E+01 0.35534510146E+01
 0.32013203614E+01 0.29422246937E+01 0.27692917890E+01 0.26818000266E+01 0.26817451401E+01
 0.27691602709E+01 0.29420821904E+01 0.32012236958E+01 0.35534504121E+01 0.40076853615E+01
 0.45626799394E+01 0.51933410625E+01 0.58448547634E+01 0.64396299246E+01 0.68945790216E+01
 0.71411859163E+01 0.71411985230E+01 0.68946180960E+01 0.64396651824E+01 0.58448105624E+01
 0.59940582379E+01 0.50835942533E+01 0.43172471996E+01 0.37121986179E+01 0.32590047100E+01
 0.29421403745E+01 0.27527140774E+01 0.26893498381E+01 0.27526696418E+01 0.29420821904E+01
 0.32589664994E+01 0.37122126655E+01 0.43173478001E+01 0.50837841238E+01 0.59942786716E+01
 0.69887266618E+01 0.79637870720E+01 0.87910760584E+01 0.93469786819E+01 0.95429384750E+01
 0.93469172898E+01 0.87909835060E+01 0.79636648373E+01 0.69885479541E+01 0.65518851510E+01
 0.53741950206E+01 0.44281415550E+01 0.37121970090E+01 0.32012182988E+01 0.28707907300E+01
 0.27076487121E+01 0.27076562830E+01 0.28708031677E+01 0.32012236958E+01 0.37122126655E+01
 0.44282063932E+01 0.53743255933E+01 0.65520522773E+01 0.79117033668E+01 0.93381533326E+01
 0.10660747018E+02 0.11686832415E+02 0.12248683476E+02 0.12248613880E+02 0.11686667785E+02
 0.10660566047E+02 0.93379877377E+01 0.79115374423E+01 0.67524960858E+01 0.53742142136E+01
 0.43172883755E+01 0.35534337781E+01 0.30399727919E+01 0.27434627458E+01 0.26462995738E+01
 0.27434743083E+01 0.30399812693E+01 0.35534504121E+01 0.43173478001E+01 0.53743255933E+01
 0.67526305213E+01 0.84306312081E+01 0.10306056719E+02 0.12187754603E+02 0.13819683696E+02
 0.14935740372E+02 0.15332164148E+02 0.14935697169E+02 0.13819596787E+02 0.12187638169E+02
 0.10305930905E+02 0.84305002301E+01 0.65519202536E+01 0.50836536641E+01 0.40076175980E+01
 0.32676502036E+01 0.28065709948E+01 0.25851667111E+01 0.25851599837E+01 0.28065542564E+01
 0.32676523958E+01 0.40076853615E+01 0.50837841238E+01 0.65520522773E+01 0.84306312081E+01
 0.10656169885E+02 0.13053093158E+02 0.15333908030E+02 0.17126435272E+02 0.18100538765E+02
 0.18100589885E+02 0.17126517681E+02 0.15333915500E+02 0.13053023669E+02 0.10656082755E+02
 0.84305326233E+01 0.59941001962E+01 0.45625622555E+01 0.35590207125E+01 0.29063810713E+01
 0.25404996109E+01 0.24227259624E+01 0.25405330702E+01 0.29063976726E+01 0.35590478765E+01
 0.45626799394E+01 0.59942786716E+01 0.79117033668E+01 0.10306056719E+02 0.13053093158E+02
 0.15883055557E+02 0.18350311045E+02 0.19997040148E+02 0.20570345891E+02 0.19997060058E+02
 0.18350318147E+02 0.15883064854E+02 0.13053131210E+02 0.10306064251E+02 0.79115952365E+01
 0.51931822545E+01 0.39081189305E+01 0.30469679117E+01 0.25241099701E+01 0.22780597152E+01
 0.22781297079E+01 0.25242198365E+01 0.30470052429E+01 0.39081642046E+01 0.51933410625E+01
 0.69887266618E+01 0.93381533326E+01 0.12187754603E+02 0.15333908030E+02 0.18350311045E+02
 0.20667948993E+02 0.21907148249E+02 0.21907105913E+02 0.20667849629E+02 0.18350248120E+02
 0.15333965532E+02 0.12187862594E+02 0.93381368490E+01 0.69885545949E+01 0.42910805176E+01
 0.32221087991E+01 0.25404064906E+01 0.21649512744E+01 0.20454318515E+01 0.21650642499E+01
 0.25405054892E+01 0.32221658862E+01 0.42911806503E+01 0.58448547634E+01 0.79637870720E+01
 0.10660747018E+02 0.13819683696E+02 0.17126435272E+02 0.19997040148E+02 0.21907148249E+02
 0.22571722717E+02 0.21907160013E+02 0.19996973196E+02 0.17126311434E+02 0.13819619094E+02
 0.10660738963E+02 0.79637204223E+01 0.58447195054E+01 0.34138802375E+01 0.25850146759E+01
 0.20882623211E+01 0.18568887035E+01 0.18569456370E+01 0.20883730924E+01 0.25851063393E+01
 0.34139648278E+01 0.46669509819E+01 0.64396299246E+01 0.87910760584E+01 0.11686832415E+02
 0.14935740372E+02 0.18100538765E+02 0.20570345891E+02 0.21907105913E+02 0.21907160013E+02
 0.20570359355E+02 0.18100332935E+02 0.14935428696E+02 0.11686649763E+02 0.87910431408E+01
 0.64395992729E+01 0.46668703132E+01 0.26461752194E+01 0.20451325775E+01 0.17164976371E+01
 0.16124024698E+01 0.17166454797E+01 0.20452770839E+01 0.26462411340E+01 0.35956395181E+01
 0.49851246658E+01 0.68945790216E+01 0.93469786819E+01 0.12248683476E+02 0.15332164148E+02
 0.18100589885E+02 0.19997060058E+02 0.20667849629E+02 0.19996973196E+02 0.18100332935E+02
 0.15331806553E+02 0.12248435789E+02 0.93469210653E+01 0.68945896718E+01 0.49851059129E+01
 0.35956049277E+01 0.20274217131E+01 0.16209035435E+01 0.14321269195E+01 0.14322337508E+01
 0.16211053121E+01 0.20275433492E+01 0.27076152160E+01 0.37378406899E+01 0.51983165178E+01
 0.71411859163E+01 0.95429384750E+01 0.12248613880E+02 0.14935697169E+02 0.17126517681E+02
 0.18350318147E+02 0.18350248120E+02 0.17126311434E+02 0.14935428696E+02 0.12248435789E+02
 0.95429180178E+01 0.71412208857E+01 0.51983064505E+01 0.37378095218E+01 0.27075770074E+01
 0.15624153736E+01 0.13097634861E+01 0.12297438465E+01 0.13098795608E+01 0.15625511944E+01
 0.20243734324E+01 0.27527101554E+01 0.38159508379E+01 0.52733599112E+01 0.71411985230E+01
 0.93469172898E+01 0.11686667785E+02 0.13819596787E+02 0.15333915500E+02 0.15883064854E+02
 0.15333965532E+02 0.13819619094E+02 0.11686649763E+02 0.93469210653E+01 0.71412208857E+01
 0.52733248874E+01 0.38158450984E+01 0.27525939581E+01 0.20242621435E+01 0.12358076847E+01
 0.10979350594E+01 0.10979535734E+01 0.12358569668E+01 0.15320932562E+01 0.20257900132E+01
 0.27692979895E+01 0.38160405748E+01 0.51984178448E+01 0.68946180960E+01 0.87909835060E+01
 0.10660566047E+02 0.12187638169E+02 0.13053023669E+02 0.13053131210E+02 0.12187862594E+02
 0.10660738963E+02 0.87910431408E+01 0.68945896718E+01 0.51983064505E+01 0.38158450984E+01
 0.27690792518E+01 0.20256287006E+01 0.15320038032E+01 0.10247310298E+01 0.96860458617E+00
 0.10247322187E+01 0.12014206381E+01 0.15228147360E+01 0.20258243083E+01 0.27528573619E+01
 0.37380576782E+01 0.49852770253E+01 0.64396651824E+01 0.79636648373E+01 0.93379877377E+01
 0.10305930905E+02 0.10656082755E+02 0.10306064251E+02 0.93381368490E+01 0.79637204223E+01
 0.64395992729E+01 0.49851059129E+01 0.37378095218E+01 0.27525939581E+01 0.20256287006E+01
 0.15227224010E+01 0.12013978295E+01 0.90778212590E+00 0.90776512880E+00 0.10013403283E+01
 0.12014060275E+01 0.15321075204E+01 0.20244726754E+01 0.27078456934E+01 0.35958603074E+01
 0.46670584156E+01 0.58448105624E+01 0.69885479541E+01 0.79115374423E+01 0.84305002301E+01
 0.84305326233E+01 0.79115952365E+01 0.69885545949E+01 0.58447195054E+01 0.46668703132E+01
 0.35956049277E+01 0.27075770074E+01 0.20242621435E+01 0.15320038032E+01 0.12013978295E+01
 0.10013714244E+01 0.90768790917E+00 0.96843742372E+00 0.10977975389E+01 0.13097632387E+01
 0.16210677996E+01 0.20453862451E+01 0.25852288522E+01 0.32221952998E+01 0.39080904153E+01
 0.45624965607E+01 0.50836080800E+01 0.53741933063E+01 0.53741905230E+01 0.50836146612E+01
 0.45625205693E+01 0.39080867542E+01 0.32220972423E+01 0.25850287930E+01 0.20451638319E+01
 0.16209346609E+01 0.13097835125E+01 0.10979445105E+01 0.96860688976E+00 0.90776170993E+00
 0.96843742372E+00 0.10366719278E+01 0.11607792232E+01 0.13533570379E+01 0.16262453362E+01
 0.19850227457E+01 0.24226481469E+01 0.29133024732E+01 0.34089265504E+01 0.38425379464E+01
 0.41414643181E+01 0.42484012101E+01 0.41414888125E+01 0.38426015324E+01 0.34090003233E+01
 0.29133072963E+01 0.24225369682E+01 0.19848497988E+01 0.16261286497E+01 0.13533761945E+01
 0.11609179353E+01 0.10368446108E+01 0.96855128231E+00 0.94685219608E+00 0.10977975389E+01
 0.11607792232E+01 0.12681076329E+01 0.14304625280E+01 0.16551737381E+01 0.19418091768E+01
 0.22779871061E+01 0.26363520794E+01 0.29747077669E+01 0.32418827726E+01 0.33900861468E+01
 0.33900927322E+01 0.32419015604E+01 0.29747255570E+01 0.26363392671E+01 0.22779280947E+01
 0.19417356321E+01 0.16551483696E+01 0.14305222814E+01 0.12682306493E+01 0.11609085992E+01
 0.10978865738E+01 0.10692853417E+01 0.10692548550E+01 0.13097632387E+01 0.13533570379E+01
 0.14304625280E+01 0.15501644718E+01 0.17166429317E+01 0.19261975607E+01 0.21649696474E+01
 0.24080500654E+01 0.26215282797E+01 0.27689892555E+01 0.28217788346E+01 0.27689522837E+01
 0.26214526603E+01 0.24079480047E+01 0.21648796279E+01 0.19261717735E+01 0.17167099969E+01
 0.15502998753E+01 0.14306014056E+01 0.13534426038E+01 0.13097862320E+01 0.12891793826E+01
 0.12833624415E+01 0.12891855095E+01 0.16210677996E+01 0.16262453362E+01 0.16551737381E+01
 0.17166429317E+01 0.18136609769E+01 0.19418118919E+01 0.20883902345E+01 0.22328758639E+01
 0.23499767336E+01 0.24158395120E+01 0.24157916439E+01 0.23498533865E+01 0.22327303852E+01
 0.20882889302E+01 0.19418052731E+01 0.18137544777E+01 0.17167870372E+01 0.16552916951E+01
 0.16262846437E+01 0.16210333972E+01 0.16275988542E+01 0.16344582754E+01 0.16344849952E+01
 0.16276566172E+01 0.20453862451E+01 0.19850227457E+01 0.19418091768E+01 0.19261975607E+01
 0.19418118919E+01 0.19850228273E+01 0.20453836493E+01 0.21073080452E+01 0.21536328384E+01
 0.21707678932E+01 0.21535363046E+01 0.21071694330E+01 0.20452787830E+01 0.19850080288E+01
 0.19418941596E+01 0.19263252670E+01 0.19418969891E+01 0.19850083315E+01 0.20452764999E+01
 0.21071698166E+01 0.21535392904E+01 0.21707681143E+01 0.21536302797E+01 0.21073080445E+01
 0.25852288522E+01 0.24226481469E+01 0.22779871061E+01 0.21649696474E+01 0.20883902345E+01
 0.20453836493E+01 0.20276715968E+01 0.20244691095E+01 0.20258291011E+01 0.20257991679E+01
 0.20243905852E+01 0.20275745407E+01 0.20453112332E+01 0.20883874375E+01 0.21650503603E+01
 0.22780980489E+01 0.24226874205E+01 0.25851279361E+01 0.27434364730E+01 0.28707890897E+01
 0.29421568049E+01 0.29422404318E+01 0.28709933111E+01 0.27436458731E+01 0.32221952998E+01
 0.29133024732E+01 0.26363520794E+01 0.24080500654E+01 0.22328758639E+01 0.21073080452E+01
 0.20244691095E+01 0.19777196379E+01 0.19626348037E+01 0.19776946773E+01 0.20244079297E+01
 0.21072182734E+01 0.22328092107E+01 0.24080756200E+01 0.26364812264E+01 0.29134477260E+01
 0.32222309793E+01 0.35322406861E+01 0.38018674249E+01 0.39869128252E+01 0.40530025426E+01
 0.39870687002E+01 0.38020768529E+01 0.35323645930E+01 0.39080904153E+01 0.34089265504E+01
 0.29747077669E+01 0.26215282797E+01 0.23499767336E+01 0.21536328384E+01 0.20258291011E+01
 0.19626348037E+01 0.19626269373E+01 0.20257927071E+01 0.21535649350E+01 0.23499326501E+01
 0.26215930870E+01 0.29749033510E+01 0.34091682154E+01 0.39082551750E+01 0.44342391494E+01
 0.49272405852E+01 0.53145509140E+01 0.55287153693E+01 0.55287428562E+01 0.53146188799E+01
 0.49272974895E+01 0.44342064109E+01 0.45624965607E+01 0.38425379464E+01 0.32418827726E+01
 0.27689892555E+01 0.24158395120E+01 0.21707678932E+01 0.20257991679E+01 0.19776946773E+01
 0.20257927071E+01 0.21707382789E+01 0.24158342928E+01 0.27691152661E+01 0.32421770173E+01
 0.38428946980E+01 0.45627679701E+01 0.53634651872E+01 0.61693928878E+01 0.68732052585E+01
 0.73579073344E+01 0.75311885382E+01 0.73578395764E+01 0.68731214052E+01 0.61693113989E+01
 0.53633227935E+01 0.50836080800E+01 0.41414643181E+01 0.33900861468E+01 0.28217788346E+01
 0.24157916439E+01 0.21535363046E+01 0.20243905852E+01 0.20244079297E+01 0.21535649350E+01
 0.24158342928E+01 0.28219281799E+01 0.33904101307E+01 0.41418743846E+01 0.50839372603E+01
 0.61901953304E+01 0.73813005928E+01 0.85194930637E+01 0.94275282610E+01 0.99345751093E+01
 0.99345043279E+01 0.94273627547E+01 0.85193250487E+01 0.73811600871E+01 0.61900029997E+01
 0.53741933063E+01 0.42484012101E+01 0.33900927322E+01 0.27689522837E+01 0.23498533865E+01
 0.21071694330E+01 0.20275745407E+01 0.21072182734E+01 0.23499326501E+01 0.27691152661E+01
 0.33904101307E+01 0.42488039208E+01 0.53745061260E+01 0.67669778070E+01 0.83634140291E+01
 0.10015168952E+02 0.11491273508E+02 0.12524930081E+02 0.12897729168E+02 0.12524799532E+02
 0.11491069635E+02 0.10014990839E+02 0.83632965688E+01 0.67668181837E+01 0.53741905230E+01
 0.41414888125E+01 0.32419015604E+01 0.26214526603E+01 0.22327303852E+01 0.20452787830E+01
 0.20453112332E+01 0.22328092107E+01 0.26215930870E+01 0.32421770173E+01 0.41418743846E+01
 0.53745061260E+01 0.69745717536E+01 0.89171619316E+01 0.11074457139E+02 0.13192237610E+02
 0.14917654318E+02 0.15894120221E+02 0.15894077676E+02 0.14917513994E+02 0.13192038436E+02
 0.11074316326E+02 0.89171020664E+01 0.69744398699E+01 0.50836146612E+01 0.38426015324E+01
 0.29747255570E+01 0.24079480047E+01 0.20882889302E+01 0.19850080288E+01 0.20883874375E+01
 0.24080756200E+01 0.29749033510E+01 0.38428946980E+01 0.50839372603E+01 0.67669778070E+01
 0.89171619316E+01 0.11458727820E+02 0.14161629496E+02 0.16632255710E+02 0.18390229148E+02
 0.19029581468E+02 0.18390163704E+02 0.16632083665E+02 0.14161426929E+02 0.11458622551E+02
 0.89171045172E+01 0.67667947087E+01 0.45625205693E+01 0.34090003233E+01 0.26363392671E+01
 0.21648796279E+01 0.19418052731E+01 0.19418941596E+01 0.21650503603E+01 0.26364812264E+01
 0.34091682154E+01 0.45627679701E+01 0.61901953304E+01 0.83634140291E+01 0.11074457139E+02
 0.14161629496E+02 0.17258042008E+02 0.19822085046E+02 0.21284207789E+02 0.21284178462E+02
 0.19821947887E+02 0.17257789495E+02 0.14161408450E+02 0.11074358235E+02 0.83633150478E+01
 0.61899792663E+01 0.39080867542E+01 0.29133072963E+01 0.22779280947E+01 0.19261717735E+01
 0.18137544777E+01 0.19263252670E+01 0.22780980489E+01 0.29134477260E+01 0.39082551750E+01
 0.53634651872E+01 0.73813005928E+01 0.10015168952E+02 0.13192237610E+02 0.16632255710E+02
 0.19822085046E+02 0.22105456380E+02 0.22934528565E+02 0.22105432874E+02 0.19821886824E+02
 0.16631905130E+02 0.13191957595E+02 0.10015045870E+02 0.73811961650E+01 0.53632945337E+01
 0.32220972423E+01 0.24225369682E+01 0.19417356321E+01 0.17167099969E+01 0.17167870372E+01
 0.19418969891E+01 0.24226874205E+01 0.32222309793E+01 0.44342391494E+01 0.61693928878E+01
 0.85194930637E+01 0.11491273508E+02 0.14917654318E+02 0.18390229148E+02 0.21284207789E+02
 0.22934528565E+02 0.22934590628E+02 0.21284201584E+02 0.18389909801E+02 0.14917151891E+02
 0.11490913110E+02 0.85193529588E+01 0.61693122898E+01 0.44341220054E+01 0.25850287930E+01
 0.19848497988E+01 0.16551483696E+01 0.15502998753E+01 0.16552916951E+01 0.19850083315E+01
 0.25851279361E+01 0.35322406861E+01 0.49272405852E+01 0.68732052585E+01 0.94275282610E+01
 0.12524930081E+02 0.15894120221E+02 0.19029581468E+02 0.21284178462E+02 0.22105432874E+02
 0.21284201584E+02 0.19029361053E+02 0.15893585178E+02 0.12524362271E+02 0.94271911849E+01
 0.68730758862E+01 0.49271778035E+01 0.35321763350E+01 0.20451638319E+01 0.16261286497E+01
 0.14305222814E+01 0.14306014056E+01 0.16262846437E+01 0.20452764999E+01 0.27434364730E+01
 0.38018674249E+01 0.53145509140E+01 0.73579073344E+01 0.99345751093E+01 0.12897729168E+02
 0.15894077676E+02 0.18390163704E+02 0.19821947887E+02 0.19821886824E+02 0.18389909801E+02
 0.15893585178E+02 0.12897167692E+02 0.99341742312E+01 0.73577084180E+01 0.53144528924E+01
 0.38018024856E+01 0.27433739008E+01 0.16209346609E+01 0.13533761945E+01 0.12682306493E+01
 0.13534426038E+01 0.16210333972E+01 0.21071698166E+01 0.28707890897E+01 0.39869128252E+01
 0.55287153693E+01 0.75311885382E+01 0.99345043279E+01 0.12524799532E+02 0.14917513994E+02
 0.16632083665E+02 0.17257789495E+02 0.16631905130E+02 0.14917151891E+02 0.12524362271E+02
 0.99341742312E+01 0.75310235162E+01 0.55286117043E+01 0.39867777329E+01 0.28706395424E+01
 0.21070465250E+01 0.13097835125E+01 0.11609179353E+01 0.11609085992E+01 0.13097862320E+01
 0.16275988542E+01 0.21535392904E+01 0.29421568049E+01 0.40530025426E+01 0.55287428562E+01
 0.73578395764E+01 0.94273627547E+01 0.11491069635E+02 0.13192038436E+02 0.14161426929E+02
 0.14161408450E+02 0.13191957595E+02 0.11490913110E+02 0.94271911849E+01 0.73577084180E+01
 0.55286117043E+01 0.40528001403E+01 0.29419054640E+01 0.21533420825E+01 0.16275159292E+01
 0.10979445105E+01 0.10368446108E+01 0.10978865738E+01 0.12891793826E+01 0.16344582754E+01
 0.21707681143E+01 0.29422404318E+01 0.39870687002E+01 0.53146188799E+01 0.68731214052E+01
 0.85193250487E+01 0.10014990839E+02 0.11074316326E+02 0.11458622551E+02 0.11074358235E+02
 0.10015045870E+02 0.85193529588E+01 0.68730758862E+01 0.53144528924E+01 0.39867777329E+01
 0.29419054640E+01 0.21705189933E+01 0.16343699776E+01 0.12892154886E+01 0.96860688976E+00
 0.96855128231E+00 0.10692853417E+01 0.12833624415E+01 0.16344849952E+01 0.21536302797E+01
 0.28709933111E+01 0.38020768529E+01 0.49272974895E+01 0.61693113989E+01 0.73811600871E+01
 0.83632965688E+01 0.89171020664E+01 0.89171045172E+01 0.83633150478E+01 0.73811961650E+01
 0.61693122898E+01 0.49271778035E+01 0.38018024856E+01 0.28706395424E+01 0.21533420825E+01
 0.16343699776E+01 0.12834148347E+01 0.10694000911E+01 0.90776170993E+00 0.94685219608E+00
 0.10692548550E+01 0.12891855095E+01 0.16276566172E+01 0.21073080445E+01 0.27436458731E+01
 0.35323645930E+01 0.44342064109E+01 0.53633227935E+01 0.61900029997E+01 0.67668181837E+01
 0.69744398699E+01 0.67667947087E+01 0.61899792663E+01 0.53632945337E+01 0.44341220054E+01
 0.35321763350E+01 0.27433739008E+01 0.21070465250E+01 0.16275159292E+01 0.12892154886E+01
 0.10694000911E+01 0.94698061751E+00 0.10246222302E+01 0.10977939656E+01 0.12296048077E+01
 0.14320698509E+01 0.17165480918E+01 0.20883891119E+01 0.25405334818E+01 0.30470286586E+01
 0.35590070606E+01 0.40075681537E+01 0.43172397484E+01 0.44281080528E+01 0.43172337209E+01
 0.40075639338E+01 0.35589890206E+01 0.30469673480E+01 0.25404374353E+01 0.20883157434E+01
 0.17165520164E+01 0.14321601320E+01 0.12297515683E+01 0.10979476391E+01 0.10247225714E+01
 0.10013291636E+01 0.10977939656E+01 0.11607793181E+01 0.12681088168E+01 0.14304623814E+01
 0.16551736223E+01 0.19418118892E+01 0.22779920300E+01 0.26363556451E+01 0.29747066701E+01
 0.32418735782E+01 0.33900650215E+01 0.33900610664E+01 0.32418706868E+01 0.29747109086E+01
 0.26363491496E+01 0.22779594958E+01 0.19417778829E+01 0.16551874072E+01 0.14305451329E+01
 0.12682325236E+01 0.11608961876E+01 0.10978711852E+01 0.10692734455E+01 0.10692472127E+01
 0.12296048077E+01 0.12681088168E+01 0.13389570433E+01 0.14518016173E+01 0.16112188917E+01
 0.18136595324E+01 0.20452961102E+01 0.22814304321E+01 0.24887862758E+01 0.26319374650E+01
 0.26831643465E+01 0.26319118182E+01 0.24887424881E+01 0.22813816987E+01 0.20452625988E+01
 0.18136664167E+01 0.16112804515E+01 0.14519027602E+01 0.13390581501E+01 0.12681750346E+01
 0.12296300970E+01 0.12123761419E+01 0.12077235947E+01 0.12123731217E+01 0.14320698509E+01
 0.14304623814E+01 0.14518016173E+01 0.15056101855E+01 0.15953319968E+01 0.17166428031E+01
 0.18568069908E+01 0.19955099418E+01 0.21080612991E+01 0.21713894733E+01 0.21713581496E+01
 0.21079721033E+01 0.19953887606E+01 0.18567115010E+01 0.17166362748E+01 0.15954308997E+01
 0.15057612783E+01 0.14519211082E+01 0.14305009814E+01 0.14320407332E+01 0.14437605443E+01
 0.14534063719E+01 0.14534274688E+01 0.14438077102E+01 0.17165480918E+01 0.16551736223E+01
 0.16112188917E+01 0.15953319968E+01 0.16112201450E+01 0.16551762080E+01 0.17165540020E+01
 0.17795175302E+01 0.18266360721E+01 0.18440772264E+01 0.18265522647E+01 0.17793879791E+01
 0.17164468170E+01 0.16551598181E+01 0.16113166312E+01 0.15954919199E+01 0.16113514428E+01
 0.16552132601E+01 0.17164976552E+01 0.17794211976E+01 0.18265632717E+01 0.18440708201E+01
 0.18266225696E+01 0.17795062764E+01 0.20883891119E+01 0.19418118892E+01 0.18136595324E+01
 0.17166428031E+01 0.16551762080E+01 0.16262479510E+01 0.16210699601E+01 0.16276599786E+01
 0.16344862560E+01 0.16344488419E+01 0.16275749869E+01 0.16210017482E+01 0.16262565335E+01
 0.16552773319E+01 0.17167947184E+01 0.18137863389E+01 0.19418505366E+01 0.20883282531E+01
 0.22327507861E+01 0.23498552775E+01 0.24157817044E+01 0.24158238844E+01 0.23499619810E+01
 0.22328680173E+01 0.25405334818E+01 0.22779920300E+01 0.20452961102E+01 0.18568069908E+01
 0.17165540020E+01 0.16210699601E+01 0.15625531870E+01 0.15321071846E+01 0.15228180490E+01
 0.15320930309E+01 0.15625473114E+01 0.16211050714E+01 0.17166491068E+01 0.18569459035E+01
 0.20454285501E+01 0.22780600322E+01 0.25405036595E+01 0.28065714637E+01 0.30399694400E+01
 0.32012183359E+01 0.32590083225E+01 0.32013203419E+01 0.30401172840E+01 0.28066881590E+01
 0.30470286586E+01 0.26363556451E+01 0.22814304321E+01 0.19955099418E+01 0.17795175302E+01
 0.16276599786E+01 0.15321071846E+01 0.14861974649E+01 0.14862220215E+01 0.15321692520E+01
 0.16277437103E+01 0.17796241351E+01 0.19956408301E+01 0.22815628620E+01 0.26364537375E+01
 0.30470694203E+01 0.34828222027E+01 0.38944425308E+01 0.42202448354E+01 0.44013831048E+01
 0.44014185564E+01 0.42203242979E+01 0.38945119409E+01 0.34828430069E+01 0.35590070606E+01
 0.29747066701E+01 0.24887862758E+01 0.21080612991E+01 0.18266360721E+01 0.16344862560E+01
 0.15228180490E+01 0.14862220215E+01 0.15229124545E+01 0.16346244493E+01 0.18267880098E+01
 0.21082313917E+01 0.24889572306E+01 0.29748350662E+01 0.35590871545E+01 0.42121542059E+01
 0.48741780009E+01 0.54569362456E+01 0.58609986738E+01 0.60060132673E+01 0.58609369934E+01
 0.54568326179E+01 0.48740746123E+01 0.42120770967E+01 0.40075681537E+01 0.32418735782E+01
 0.26319374650E+01 0.21713894733E+01 0.18440772264E+01 0.16344488419E+01 0.15320930309E+01
 0.15321692520E+01 0.16346244493E+01 0.18442751705E+01 0.21716014775E+01 0.26321666270E+01
 0.32420646644E+01 0.40076847376E+01 0.49101441521E+01 0.58885205372E+01 0.68314741028E+01
 0.75898219411E+01 0.80156563881E+01 0.80155707356E+01 0.75895960284E+01 0.68312049119E+01
 0.58883214844E+01 0.49100328168E+01 0.43172397484E+01 0.33900650215E+01 0.26831643465E+01
 0.21713581496E+01 0.18265522647E+01 0.16275749869E+01 0.15625473114E+01 0.16277437103E+01
 0.18267880098E+01 0.21716014775E+01 0.26834178087E+01 0.33902885782E+01 0.43173748779E+01
 0.54678197922E+01 0.67959813076E+01 0.81829759865E+01 0.94340092034E+01 0.10316393896E+02
 0.10635870879E+02 0.10316250895E+02 0.94337348252E+01 0.81826753531E+01 0.67957851585E+01
 0.54677178945E+01 0.44281080528E+01 0.33900610664E+01 0.26319118182E+01 0.21079721033E+01
 0.17793879791E+01 0.16210017482E+01 0.16211050714E+01 0.17796241351E+01 0.21082313917E+01
 0.26321666270E+01 0.33902885782E+01 0.44282360062E+01 0.57795340263E+01 0.74320146131E+01
 0.92857143921E+01 0.11124555495E+02 0.12635723437E+02 0.13495716000E+02 0.13495690419E+02
 0.12635591931E+02 0.11124294735E+02 0.92854647429E+01 0.74319050117E+01 0.57794904441E+01
 0.43172337209E+01 0.32418706868E+01 0.24887424881E+01 0.19953887606E+01 0.17164468170E+01
 0.16262565335E+01 0.17166491068E+01 0.19956408301E+01 0.24889572306E+01 0.32420646644E+01
 0.43173748779E+01 0.57795340263E+01 0.76615198053E+01 0.99103214941E+01 0.12329798227E+02
 0.14563634775E+02 0.16164395502E+02 0.16748673532E+02 0.16164344297E+02 0.14563454842E+02
 0.12329549227E+02 0.99101776632E+01 0.76615075236E+01 0.57795010146E+01 0.40075639338E+01
 0.29747109086E+01 0.22813816987E+01 0.18567115010E+01 0.16551598181E+01 0.16552773319E+01
 0.18569459035E+01 0.22815628620E+01 0.29748350662E+01 0.40076847376E+01 0.54678197922E+01
 0.74320146131E+01 0.99103214941E+01 0.12768519894E+02 0.15668146457E+02 0.18090018233E+02
 0.19481704353E+02 0.19481672685E+02 0.18089875105E+02 0.15667885245E+02 0.12768291785E+02
 0.99102440435E+01 0.74320019331E+01 0.54677452857E+01 0.35589890206E+01 0.26363491496E+01
 0.20452625988E+01 0.17166362748E+01 0.16113166312E+01 0.17167947184E+01 0.20454285501E+01
 0.26364537375E+01 0.35590871545E+01 0.49101441521E+01 0.67959813076E+01 0.92857143921E+01
 0.12329798227E+02 0.15668146457E+02 0.18795224493E+02 0.21057538004E+02 0.21887163491E+02
 0.21057463298E+02 0.18795000125E+02 0.15667835780E+02 0.12329583486E+02 0.92856424500E+01
 0.67959304931E+01 0.49100471652E+01 0.30469673480E+01 0.22779594958E+01 0.18136664167E+01
 0.15954308997E+01 0.15954919199E+01 0.18137863389E+01 0.22780600322E+01 0.30470694203E+01
 0.42121542059E+01 0.58885205372E+01 0.81829759865E+01 0.11124555495E+02 0.14563634775E+02
 0.18090018233E+02 0.21057538004E+02 0.22770280188E+02 0.22770273993E+02 0.21057440169E+02
 0.18089757746E+02 0.14563329686E+02 0.11124360559E+02 0.81828731024E+01 0.58884066144E+01
 0.42120240351E+01 0.25404374353E+01 0.19417778829E+01 0.16112804515E+01 0.15057612783E+01
 0.16113514428E+01 0.19418505366E+01 0.25405036595E+01 0.34828222027E+01 0.48741780009E+01
 0.68314741028E+01 0.94340092034E+01 0.12635723437E+02 0.16164395502E+02 0.19481704353E+02
 0.21887163491E+02 0.22770273993E+02 0.21887146806E+02 0.19481565365E+02 0.16164120910E+02
 0.12635430108E+02 0.94337734801E+01 0.68312705198E+01 0.48739960822E+01 0.34827026854E+01
 0.20883157434E+01 0.16551874072E+01 0.14519027602E+01 0.14519211082E+01 0.16552132601E+01
 0.20883282531E+01 0.28065714637E+01 0.38944425308E+01 0.54569362456E+01 0.75898219411E+01
 0.10316393896E+02 0.13495716000E+02 0.16748673532E+02 0.19481672685E+02 0.21057463298E+02
 0.21057440169E+02 0.19481565365E+02 0.16748440431E+02 0.13495396971E+02 0.10316061883E+02
 0.75895115715E+01 0.54566737017E+01 0.38942775122E+01 0.28065155094E+01 0.17165520164E+01
 0.14305451329E+01 0.13390581501E+01 0.14305009814E+01 0.17164976552E+01 0.22327507861E+01
 0.30399694400E+01 0.42202448354E+01 0.58609986738E+01 0.80156563881E+01 0.10635870879E+02
 0.13495690419E+02 0.16164344297E+02 0.18089875105E+02 0.18795000125E+02 0.18089757746E+02
 0.16164120910E+02 0.13495396971E+02 0.10635552392E+02 0.80153379737E+01 0.58606999219E+01
 0.42200103020E+01 0.30398504880E+01 0.22327483083E+01 0.14321601320E+01 0.12682325236E+01
 0.12681750346E+01 0.14320407332E+01 0.17794211976E+01 0.23498552775E+01 0.32012183359E+01
 0.44013831048E+01 0.60060132673E+01 0.80155707356E+01 0.10316250895E+02 0.12635591931E+02
 0.14563454842E+02 0.15667885245E+02 0.15667835780E+02 0.14563329686E+02 0.12635430108E+02
 0.10316061883E+02 0.80153379737E+01 0.60057388099E+01 0.44011117767E+01 0.32010223876E+01