   2   2   0   0
  0.2001288E+02  0.3839590E-09  0.3839590E-09  0.3839590E-09  0.5000000E-15
  1.000000000000000E-004
  CAR 
 unknown system                          
     16.30023100     -7.93090481  301      6.18325128      1.00000000
     -7.931  0.0000E+00  0.0000E+00
     -7.850  0.0000E+00  0.0000E+00
     -7.769  0.0000E+00  0.0000E+00
     -7.689  0.0000E+00  0.0000E+00
     -7.608  0.0000E+00  0.0000E+00
     -7.527  0.0000E+00  0.0000E+00
     -7.446  0.0000E+00  0.0000E+00
     -7.366  0.0000E+00  0.0000E+00
     -7.285  0.0000E+00  0.0000E+00
     -7.204  0.0000E+00  0.0000E+00
     -7.123  0.0000E+00  0.0000E+00
     -7.042  0.1002E-15  0.8095E-17
     -6.962  0.7981E-14  0.6527E-15
     -6.881  0.4691E-12  0.3854E-13
     -6.800  0.1998E-10  0.1653E-11
     -6.719  0.6175E-09  0.5153E-10
     -6.639  0.1385E-07  0.1170E-08
     -6.558  0.2254E-06  0.1937E-07
     -6.477  0.2664E-05  0.2346E-06
     -6.396  0.2288E-04  0.2083E-05
     -6.315  0.1429E-03  0.1362E-04
     -6.235  0.6487E-03  0.6601E-04
     -6.154  0.2142E-02  0.2391E-03
     -6.073  0.5149E-02  0.6550E-03
     -5.992  0.9009E-02  0.1383E-02
     -5.912  0.1149E-01  0.2311E-02
     -5.831  0.1077E-01  0.3180E-02
     -5.750  0.7914E-02  0.3819E-02
     -5.669  0.6532E-02  0.4347E-02
     -5.589  0.1019E-01  0.5170E-02
     -5.508  0.1962E-01  0.6755E-02
     -5.427  0.3042E-01  0.9212E-02
     -5.346  0.3484E-01  0.1203E-01
     -5.265  0.2943E-01  0.1440E-01
     -5.185  0.1960E-01  0.1599E-01
     -5.104  0.1437E-01  0.1715E-01
     -5.023  0.1823E-01  0.1862E-01
     -4.942  0.2789E-01  0.2087E-01
     -4.862  0.3466E-01  0.2367E-01
     -4.781  0.3218E-01  0.2627E-01
     -4.700  0.2320E-01  0.2814E-01
     -4.619  0.1678E-01  0.2950E-01
     -4.539  0.1954E-01  0.3108E-01
     -4.458  0.3054E-01  0.3355E-01
     -4.377  0.4186E-01  0.3693E-01
     -4.296  0.4468E-01  0.4054E-01
     -4.215  0.3845E-01  0.4364E-01
     -4.135  0.3341E-01  0.4634E-01
     -4.054  0.4103E-01  0.4965E-01
     -3.973  0.6108E-01  0.5459E-01
     -3.892  0.8025E-01  0.6107E-01
     -3.812  0.8524E-01  0.6795E-01
     -3.731  0.7455E-01  0.7398E-01
     -3.650  0.5527E-01  0.7844E-01
     -3.569  0.3497E-01  0.8126E-01
     -3.489  0.2005E-01  0.8288E-01
     -3.408  0.1520E-01  0.8411E-01
     -3.327  0.2065E-01  0.8578E-01
     -3.246  0.3054E-01  0.8825E-01
     -3.165  0.3618E-01  0.9117E-01
     -3.085  0.3452E-01  0.9396E-01
     -3.004  0.3240E-01  0.9657E-01
     -2.923  0.3920E-01  0.9974E-01
     -2.842  0.5659E-01  0.1043E+00
     -2.762  0.7703E-01  0.1105E+00
     -2.681  0.8872E-01  0.1177E+00
     -2.600  0.8250E-01  0.1244E+00
     -2.519  0.5977E-01  0.1292E+00
     -2.439  0.3282E-01  0.1318E+00
     -2.358  0.1341E-01  0.1329E+00
     -2.277  0.4036E-02  0.1332E+00
     -2.196  0.8887E-03  0.1333E+00
     -2.115  0.1427E-03  0.1333E+00
     -2.035  0.1669E-04  0.1333E+00
     -1.954  0.1419E-05  0.1333E+00
     -1.873  0.9368E-07  0.1333E+00
     -1.792  0.1335E-06  0.1333E+00
     -1.712  0.2021E-05  0.1333E+00
     -1.631  0.2297E-04  0.1333E+00
     -1.550  0.1904E-03  0.1334E+00
     -1.469  0.1155E-02  0.1334E+00
     -1.388  0.5148E-02  0.1339E+00
     -1.308  0.1697E-01  0.1352E+00
     -1.227  0.4179E-01  0.1386E+00
     -1.146  0.7809E-01  0.1449E+00
     -1.065  0.1134E+00  0.1541E+00
     -0.985  0.1323E+00  0.1648E+00
     -0.904  0.1283E+00  0.1751E+00
     -0.823  0.1063E+00  0.1837E+00
     -0.742  0.7506E-01  0.1898E+00
     -0.662  0.4407E-01  0.1933E+00
     -0.581  0.2079E-01  0.1950E+00
     -0.500  0.7795E-02  0.1956E+00
     -0.419  0.3156E-02  0.1959E+00
     -0.338  0.4720E-02  0.1963E+00
     -0.258  0.1344E-01  0.1974E+00
     -0.177  0.3170E-01  0.1999E+00
     -0.096  0.5665E-01  0.2045E+00
     -0.015  0.7587E-01  0.2106E+00
      0.065  0.7561E-01  0.2167E+00
      0.146  0.5573E-01  0.2212E+00
      0.227  0.3024E-01  0.2237E+00
      0.308  0.1203E-01  0.2246E+00
      0.388  0.3522E-02  0.2249E+00
      0.469  0.8917E-03  0.2250E+00
      0.550  0.9270E-03  0.2251E+00
      0.631  0.3263E-02  0.2253E+00
      0.712  0.9481E-02  0.2261E+00
      0.792  0.2021E-01  0.2277E+00
      0.873  0.3185E-01  0.2303E+00
      0.954  0.3839E-01  0.2334E+00
      1.035  0.3876E-01  0.2365E+00
      1.115  0.3818E-01  0.2396E+00
      1.196  0.3907E-01  0.2428E+00
      1.277  0.3682E-01  0.2458E+00
      1.358  0.2816E-01  0.2480E+00
      1.438  0.1796E-01  0.2495E+00
      1.519  0.1537E-01  0.2507E+00
      1.600  0.2771E-01  0.2530E+00
      1.681  0.5562E-01  0.2575E+00
      1.762  0.8732E-01  0.2645E+00
      1.842  0.1018E+00  0.2727E+00
      1.923  0.8792E-01  0.2798E+00
      2.004  0.5646E-01  0.2844E+00
      2.085  0.2827E-01  0.2867E+00
      2.165  0.1595E-01  0.2880E+00
      2.246  0.2195E-01  0.2897E+00
      2.327  0.4479E-01  0.2934E+00
      2.408  0.7873E-01  0.2997E+00
      2.488  0.1104E+00  0.3086E+00
      2.569  0.1244E+00  0.3187E+00
      2.650  0.1166E+00  0.3281E+00
      2.731  0.9996E-01  0.3362E+00
      2.812  0.9045E-01  0.3435E+00
      2.892  0.8952E-01  0.3507E+00
      2.973  0.8894E-01  0.3579E+00
      3.054  0.8688E-01  0.3649E+00
      3.135  0.8560E-01  0.3718E+00
      3.215  0.8057E-01  0.3783E+00
      3.296  0.6872E-01  0.3839E+00
      3.377  0.6074E-01  0.3888E+00
      3.458  0.6987E-01  0.3944E+00
      3.538  0.9164E-01  0.4018E+00
      3.619  0.1066E+00  0.4104E+00
      3.700  0.1052E+00  0.4189E+00
      3.781  0.1001E+00  0.4270E+00
      3.862  0.1052E+00  0.4355E+00
      3.942  0.1129E+00  0.4446E+00
      4.023  0.1055E+00  0.4532E+00
      4.104  0.8371E-01  0.4599E+00
      4.185  0.6530E-01  0.4652E+00
      4.265  0.5987E-01  0.4700E+00
      4.346  0.6199E-01  0.4750E+00
      4.427  0.6642E-01  0.4804E+00
      4.508  0.7384E-01  0.4864E+00
      4.589  0.8122E-01  0.4929E+00
      4.669  0.8038E-01  0.4994E+00
      4.750  0.6836E-01  0.5049E+00
      4.831  0.5142E-01  0.5091E+00
      4.912  0.3885E-01  0.5122E+00
      4.992  0.3541E-01  0.5151E+00
      5.073  0.3727E-01  0.5181E+00
      5.154  0.3573E-01  0.5210E+00
      5.235  0.2725E-01  0.5232E+00
      5.315  0.1716E-01  0.5246E+00
      5.396  0.1269E-01  0.5256E+00
      5.477  0.1563E-01  0.5269E+00
      5.558  0.2132E-01  0.5286E+00
      5.639  0.2311E-01  0.5305E+00
      5.719  0.1849E-01  0.5319E+00
      5.800  0.1079E-01  0.5328E+00
      5.881  0.4582E-02  0.5332E+00
      5.962  0.1416E-02  0.5333E+00
      6.042  0.3186E-03  0.5333E+00
      6.123  0.5223E-04  0.5333E+00
      6.204  0.8175E-05  0.5333E+00
      6.285  0.2103E-04  0.5333E+00
      6.365  0.1540E-03  0.5333E+00
      6.446  0.8408E-03  0.5334E+00
      6.527  0.3340E-02  0.5337E+00
      6.608  0.9654E-02  0.5345E+00
      6.689  0.2031E-01  0.5361E+00
      6.769  0.3113E-01  0.5386E+00
      6.850  0.3495E-01  0.5414E+00
      6.931  0.2955E-01  0.5438E+00
      7.012  0.2170E-01  0.5456E+00
      7.092  0.2029E-01  0.5472E+00
      7.173  0.2702E-01  0.5494E+00
      7.254  0.3494E-01  0.5522E+00
      7.335  0.3629E-01  0.5552E+00
      7.415  0.3131E-01  0.5577E+00
      7.496  0.2726E-01  0.5599E+00
      7.577  0.3045E-01  0.5623E+00
      7.658  0.4204E-01  0.5657E+00
      7.739  0.5868E-01  0.5705E+00
      7.819  0.7466E-01  0.5765E+00
      7.900  0.8647E-01  0.5835E+00
      7.981  0.9514E-01  0.5912E+00
      8.062  0.1020E+00  0.5994E+00
      8.142  0.1064E+00  0.6080E+00
      8.223  0.1081E+00  0.6168E+00
      8.304  0.1058E+00  0.6253E+00
      8.385  0.9545E-01  0.6330E+00
      8.465  0.8027E-01  0.6395E+00
      8.546  0.7349E-01  0.6454E+00
      8.627  0.8580E-01  0.6524E+00
      8.708  0.1131E+00  0.6615E+00
      8.789  0.1365E+00  0.6725E+00
      8.869  0.1351E+00  0.6834E+00
      8.950  0.1045E+00  0.6919E+00
      9.031  0.6251E-01  0.6969E+00
      9.112  0.3215E-01  0.6995E+00
      9.192  0.2603E-01  0.7016E+00
      9.273  0.4731E-01  0.7054E+00
      9.354  0.9155E-01  0.7128E+00
      9.435  0.1419E+00  0.7243E+00
      9.516  0.1732E+00  0.7383E+00
      9.596  0.1712E+00  0.7521E+00
      9.677  0.1427E+00  0.7636E+00
      9.758  0.1064E+00  0.7722E+00
      9.839  0.7695E-01  0.7784E+00
      9.919  0.6156E-01  0.7834E+00
     10.000  0.6255E-01  0.7885E+00
     10.081  0.7689E-01  0.7947E+00
     10.162  0.9484E-01  0.8023E+00
     10.242  0.1045E+00  0.8108E+00
     10.323  0.9974E-01  0.8188E+00
     10.404  0.8437E-01  0.8256E+00
     10.485  0.6742E-01  0.8311E+00
     10.566  0.5665E-01  0.8357E+00
     10.646  0.5496E-01  0.8401E+00
     10.727  0.6057E-01  0.8450E+00
     10.808  0.7064E-01  0.8507E+00
     10.889  0.8264E-01  0.8574E+00
     10.969  0.9210E-01  0.8648E+00
     11.050  0.9629E-01  0.8726E+00
     11.131  0.9924E-01  0.8806E+00
     11.212  0.1048E+00  0.8891E+00
     11.292  0.1097E+00  0.8979E+00
     11.373  0.1075E+00  0.9066E+00
     11.454  0.9402E-01  0.9142E+00
     11.535  0.7027E-01  0.9199E+00
     11.616  0.4667E-01  0.9236E+00
     11.696  0.3895E-01  0.9268E+00
     11.777  0.5515E-01  0.9312E+00
     11.858  0.8576E-01  0.9382E+00
     11.939  0.1083E+00  0.9469E+00
     12.019  0.1092E+00  0.9557E+00
     12.100  0.9747E-01  0.9636E+00
     12.181  0.8827E-01  0.9707E+00
     12.262  0.8012E-01  0.9772E+00
     12.342  0.6315E-01  0.9823E+00
     12.423  0.3882E-01  0.9855E+00
     12.504  0.1802E-01  0.9869E+00
     12.585  0.7361E-02  0.9875E+00
     12.666  0.6483E-02  0.9880E+00
     12.746  0.1326E-01  0.9891E+00
     12.827  0.2453E-01  0.9911E+00
     12.908  0.3381E-01  0.9938E+00
     12.989  0.3519E-01  0.9966E+00
     13.069  0.3162E-01  0.9992E+00
     13.150  0.3515E-01  0.1002E+01
     13.231  0.5495E-01  0.1006E+01
     13.312  0.8428E-01  0.1013E+01
     13.392  0.1020E+00  0.1022E+01
     13.473  0.9287E-01  0.1029E+01
     13.554  0.6420E-01  0.1034E+01
     13.635  0.3640E-01  0.1037E+01
     13.716  0.2088E-01  0.1039E+01
     13.796  0.1463E-01  0.1040E+01
     13.877  0.1123E-01  0.1041E+01
     13.958  0.9820E-02  0.1042E+01
     14.039  0.1469E-01  0.1043E+01
     14.119  0.2965E-01  0.1045E+01
     14.200  0.5121E-01  0.1049E+01
     14.281  0.6673E-01  0.1055E+01
     14.362  0.6431E-01  0.1060E+01
     14.443  0.4573E-01  0.1064E+01
     14.523  0.2396E-01  0.1066E+01
     14.604  0.9250E-02  0.1066E+01
     14.685  0.2627E-02  0.1067E+01
     14.766  0.5479E-03  0.1067E+01
     14.846  0.8386E-04  0.1067E+01
     14.927  0.9401E-05  0.1067E+01
     15.008  0.7709E-06  0.1067E+01
     15.089  0.4617E-07  0.1067E+01
     15.169  0.2017E-08  0.1067E+01
     15.250  0.6417E-10  0.1067E+01
     15.331  0.1486E-11  0.1067E+01
     15.412  0.2500E-13  0.1067E+01
     15.493  0.3093E-15  0.1067E+01
     15.573  0.0000E+00  0.1067E+01
     15.654  0.0000E+00  0.1067E+01
     15.735  0.0000E+00  0.1067E+01
     15.816  0.0000E+00  0.1067E+01
     15.896  0.0000E+00  0.1067E+01
     15.977  0.0000E+00  0.1067E+01
     16.058  0.0000E+00  0.1067E+01
     16.139  0.0000E+00  0.1067E+01
     16.219  0.0000E+00  0.1067E+01
     16.300  0.0000E+00  0.1067E+01
