       N       E                     dE             d eps       ncg     rms          rms(c)
DAV:   1    -0.420576676037E+01   -0.42058E+01   -0.18095E+03   168   0.305E+02
DAV:   2    -0.108730554954E+02   -0.66673E+01   -0.63454E+01   240   0.463E+01
DAV:   3    -0.109226494229E+02   -0.49594E-01   -0.49594E-01   192   0.480E+00
DAV:   4    -0.109227383670E+02   -0.88944E-04   -0.88944E-04   248   0.195E-01
DAV:   5    -0.109227383825E+02   -0.15570E-07   -0.15294E-07   184   0.247E-03    0.296E+00
DAV:   6    -0.107984342591E+02    0.12430E+00   -0.76862E-02   176   0.141E+00    0.175E+00
DAV:   7    -0.107403526251E+02    0.58082E-01   -0.14425E-01   200   0.203E+00    0.146E-01
DAV:   8    -0.107415848066E+02   -0.12322E-02   -0.33677E-03   160   0.401E-01    0.251E-02
DAV:   9    -0.107416811405E+02   -0.96334E-04   -0.90984E-05   112   0.738E-02
   1 F= -.10741681E+02 E0= -.10741680E+02  d E =-.107417E+02
