 running on    8 total cores
 distrk:  each k-point on    8 cores,    1 groups
 distr:  one band on    1 cores,    8 groups
 using from now: INCAR     
 vasp.5.4.4.18Apr17-6-g9f103f2a35 (build Dec 09 2018 21:25:21) complex          
  
 POSCAR found type information on POSCAR  Si
 POSCAR found :  1 types and       2 ions
 scaLAPACK will be used

 ----------------------------------------------------------------------------- 
|                                                                             |
|           W    W    AA    RRRRR   N    N  II  N    N   GGGG   !!!           |
|           W    W   A  A   R    R  NN   N  II  NN   N  G    G  !!!           |
|           W    W  A    A  R    R  N N  N  II  N N  N  G       !!!           |
|           W WW W  AAAAAA  RRRRR   N  N N  II  N  N N  G  GGG   !            |
|           WW  WW  A    A  R   R   N   NN  II  N   NN  G    G                |
|           W    W  A    A  R    R  N    N  II  N    N   GGGG   !!!           |
|                                                                             |
|      For optimal performance we recommend to set                            |
|        NCORE= 4 - approx SQRT( number of cores)                             |
|      NCORE specifies how many cores store one orbital (NPAR=cpu/NCORE).     |
|      This setting can  greatly improve the performance of VASP for DFT.     |
|      The default,   NCORE=1            might be grossly inefficient         |
|      on modern multi-core architectures or massively parallel machines.     |
|      Do your own testing !!!!                                               |
|      Unfortunately you need to use the default for GW and RPA calculations. |
|      (for HF NCORE is supported but not extensively tested yet)             |
|                                                                             |
 ----------------------------------------------------------------------------- 

 LDA part: xc-table for Pade appr. of Perdew
 POSCAR, INCAR and KPOINTS ok, starting setup
 FFT: planning ...
 WAVECAR not read
 entering main loop
       N       E                     dE             d eps       ncg     rms          rms(c)
DAV:   1     0.333561038245E+01    0.33356E+01   -0.27568E+03   168   0.584E+02
DAV:   2    -0.108141001148E+02   -0.14150E+02   -0.13503E+02   280   0.719E+01
DAV:   3    -0.109671007797E+02   -0.15300E+00   -0.15300E+00   176   0.978E+00
DAV:   4    -0.109678534499E+02   -0.75267E-03   -0.75267E-03   296   0.797E-01
DAV:   5    -0.109678536970E+02   -0.24711E-06   -0.24671E-06   168   0.865E-03    0.307E+00
DAV:   6    -0.108364633763E+02    0.13139E+00   -0.85654E-02   192   0.154E+00    0.182E+00
DAV:   7    -0.107766428321E+02    0.59821E-01   -0.15876E-01   176   0.223E+00    0.159E-01
DAV:   8    -0.107781871864E+02   -0.15444E-02   -0.47547E-03   176   0.515E-01    0.254E-02
DAV:   9    -0.107782840201E+02   -0.96834E-04   -0.11518E-04   144   0.861E-02
   1 F= -.10778284E+02 E0= -.10777798E+02  d E =-.107783E+02
 curvature:   0.00 expect dE= 0.000E+00 dE for cont linesearch  0.000E+00
 trial: gam= 0.00000 g(F)=  0.258E-45 g(S)=  0.211E-01 ort = 0.000E+00 (trialstep = 0.100E+01)
 search vector abs. value=  0.211E-01
 bond charge predicted
       N       E                     dE             d eps       ncg     rms          rms(c)
DAV:   1    -0.107895871057E+02   -0.11400E-01   -0.31867E-01   168   0.316E+00    0.358E-01
DAV:   2    -0.107842212383E+02    0.53659E-02   -0.46157E-03   208   0.465E-01    0.205E-01
DAV:   3    -0.107813625191E+02    0.28587E-02   -0.57221E-03   192   0.383E-01    0.252E-02
DAV:   4    -0.107813534853E+02    0.90338E-05   -0.65133E-05    88   0.732E-02
   2 F= -.10781353E+02 E0= -.10781062E+02  d E =-.306947E-02
 trial-energy change:   -0.003069  1 .order   -0.003544   -0.021111    0.014023
 step:   0.6009(harm=  0.6009)  dis= 0.00000  next Energy=   -10.784627 (dE=-0.634E-02)
 bond charge predicted
       N       E                     dE             d eps       ncg     rms          rms(c)
DAV:   1    -0.107856168639E+02   -0.42543E-02   -0.52082E-02   168   0.129E+00    0.145E-01
DAV:   2    -0.107847496325E+02    0.86723E-03   -0.73789E-04   192   0.186E-01    0.834E-02
DAV:   3    -0.107842977912E+02    0.45184E-03   -0.92102E-04   160   0.155E-01    0.101E-02
DAV:   4    -0.107843013175E+02   -0.35264E-05   -0.16978E-05    80   0.364E-02
   3 F= -.10784301E+02 E0= -.10783947E+02  d E =-.601730E-02
 curvature:  -0.30 expect dE=-0.621E-05 dE for cont linesearch -0.621E-05
 trial: gam= 0.00000 g(F)=  0.572E-45 g(S)=  0.207E-04 ort =-0.661E-03 (trialstep = 0.920E+00)
 search vector abs. value=  0.207E-04
 reached required accuracy - stopping structural energy minimisation
 writing wavefunctions
