<?xml version="1.0" encoding="ISO-8859-1"?>
<modeling>
 <generator>
  <i name="program" type="string">vasp </i>
  <i name="version" type="string">5.4.4.18Apr17-6-g9f103f2a35  </i>
  <i name="subversion" type="string">(build Dec 09 2018 21:25:21) complex            parallel </i>
  <i name="platform" type="string">IFC18.0.1.163_CrayMPICH7.7.0_MKL18.0.1.163 </i>
  <i name="date" type="string">2019 03 20 </i>
  <i name="time" type="string">10:06:23 </i>
 </generator>
 <incar>
  <i type="string" name="PREC">normal</i>
  <i type="int" name="IBRION">     2</i>
  <i name="EDIFF">      0.00040000</i>
  <i name="EDIFFG">     -0.01000000</i>
  <i type="int" name="NSW">    15</i>
  <i type="int" name="ISIF">     3</i>
  <i name="ENCUT">    350.00000000</i>
  <i type="int" name="NBANDS">     8</i>
  <i type="logical" name="LREAL"> F  </i>
  <i type="int" name="ISMEAR">     0</i>
  <i name="SIGMA">      0.20000000</i>
  <v type="int" name="KPOINT_BSE">    -1     0     0     0</v>
 </incar>
 <structure name="primitive_cell" >
  <crystal>
   <varray name="basis" >
    <v>       0.00000000       2.71500000       2.71500000 </v>
    <v>       2.71500000       0.00000000       2.71500000 </v>
    <v>       2.71500000       2.71500000       0.00000000 </v>
   </varray>
   <i name="volume">     40.02575175 </i>
   <varray name="rec_basis" >
    <v>      -0.18416206       0.18416206       0.18416206 </v>
    <v>       0.18416206      -0.18416206       0.18416206 </v>
    <v>       0.18416206       0.18416206      -0.18416206 </v>
   </varray>
  </crystal>
  <varray name="positions" >
   <v>      -0.50000000      -0.50000000      -0.50000000 </v>
   <v>      -0.25000000      -0.25000000      -0.25000000 </v>
  </varray>
 </structure>
 <varray name="primitive_index" >
  <v type="int" >        1 </v>
  <v type="int" >        2 </v>
 </varray>
 <kpoints>
  <generation param="Monkhorst-Pack">
   <v type="int" name="divisions">       5        5        5 </v>
   <v name="usershift">      0.00000000       0.00000000       0.00000000 </v>
   <v name="genvec1">      0.20000000       0.00000000      -0.00000000 </v>
   <v name="genvec2">      0.00000000       0.20000000       0.00000000 </v>
   <v name="genvec3">     -0.00000000      -0.00000000       0.20000000 </v>
   <v name="shift">      0.00000000       0.00000000       0.00000000 </v>
  </generation>
  <varray name="kpointlist" >
   <v>       0.00000000       0.00000000       0.00000000 </v>
   <v>       0.20000000       0.00000000       0.00000000 </v>
   <v>       0.40000000       0.00000000       0.00000000 </v>
   <v>       0.20000000       0.20000000       0.00000000 </v>
   <v>       0.40000000       0.20000000       0.00000000 </v>
   <v>      -0.40000000       0.20000000       0.00000000 </v>
   <v>      -0.20000000       0.20000000       0.00000000 </v>
   <v>       0.40000000       0.40000000       0.00000000 </v>
   <v>      -0.40000000       0.40000000       0.00000000 </v>
   <v>      -0.40000000       0.40000000       0.20000000 </v>
  </varray>
  <varray name="weights" >
   <v>       0.00800000 </v>
   <v>       0.06400000 </v>
   <v>       0.06400000 </v>
   <v>       0.04800000 </v>
   <v>       0.19200000 </v>
   <v>       0.19200000 </v>
   <v>       0.09600000 </v>
   <v>       0.04800000 </v>
   <v>       0.09600000 </v>
   <v>       0.19200000 </v>
  </varray>
 </kpoints>
 <parameters>
  <separator name="general" >
   <i type="string" name="SYSTEM">unknown system</i>
   <i type="logical" name="LCOMPAT"> F  </i>
  </separator>
  <separator name="electronic" >
   <i type="string" name="PREC">normal</i>
   <i name="ENMAX">    350.00000000</i>
   <i name="ENAUG">    322.06900000</i>
   <i name="EDIFF">      0.00040000</i>
   <i type="int" name="IALGO">    38</i>
   <i type="int" name="IWAVPR">    11</i>
   <i type="int" name="NBANDS">     8</i>
   <i name="NELECT">      8.00000000</i>
   <i type="int" name="TURBO">     0</i>
   <i type="int" name="IRESTART">     0</i>
   <i type="int" name="NREBOOT">     0</i>
   <i type="int" name="NMIN">     0</i>
   <i name="EREF">      0.00000000</i>
   <separator name="electronic smearing" >
    <i type="int" name="ISMEAR">     0</i>
    <i name="SIGMA">      0.20000000</i>
    <i name="KSPACING">      0.50000000</i>
    <i type="logical" name="KGAMMA"> T  </i>
   </separator>
   <separator name="electronic projectors" >
    <i type="logical" name="LREAL"> F  </i>
    <v name="ROPT">      0.00000000</v>
    <i type="int" name="LMAXPAW">  -100</i>
    <i type="int" name="LMAXMIX">     2</i>
    <i type="logical" name="NLSPLINE"> F  </i>
   </separator>
   <separator name="electronic startup" >
    <i type="int" name="ISTART">     0</i>
    <i type="int" name="ICHARG">     2</i>
    <i type="int" name="INIWAV">     1</i>
   </separator>
   <separator name="electronic spin" >
    <i type="int" name="ISPIN">     1</i>
    <i type="logical" name="LNONCOLLINEAR"> F  </i>
    <v name="MAGMOM">      1.00000000      1.00000000</v>
    <i name="NUPDOWN">     -1.00000000</i>
    <i type="logical" name="LSORBIT"> F  </i>
    <v name="SAXIS">      0.00000000      0.00000000      1.00000000</v>
    <i type="logical" name="LSPIRAL"> F  </i>
    <v name="QSPIRAL">      0.00000000      0.00000000      0.00000000</v>
    <i type="logical" name="LZEROZ"> F  </i>
   </separator>
   <separator name="electronic exchange-correlation" >
    <i type="logical" name="LASPH"> F  </i>
    <i type="logical" name="LMETAGGA"> F  </i>
   </separator>
   <separator name="electronic convergence" >
    <i type="int" name="NELM">    60</i>
    <i type="int" name="NELMDL">    -5</i>
    <i type="int" name="NELMIN">     2</i>
    <i name="ENINI">    350.00000000</i>
    <separator name="electronic convergence detail" >
     <i type="logical" name="LDIAG"> T  </i>
     <i type="logical" name="LSUBROT"> F  </i>
     <i name="WEIMIN">      0.00100000</i>
     <i name="EBREAK">      0.00001250</i>
     <i name="DEPER">      0.30000000</i>
     <i type="int" name="NRMM">     4</i>
     <i name="TIME">      0.40000000</i>
    </separator>
   </separator>
   <separator name="electronic mixer" >
    <i name="AMIX">      0.40000000</i>
    <i name="BMIX">      1.00000000</i>
    <i name="AMIN">      0.10000000</i>
    <i name="AMIX_MAG">      1.60000000</i>
    <i name="BMIX_MAG">      1.00000000</i>
    <separator name="electronic mixer details" >
     <i type="int" name="IMIX">     4</i>
     <i type="logical" name="MIXFIRST"> F  </i>
     <i type="int" name="MAXMIX">   -45</i>
     <i name="WC">    100.00000000</i>
     <i type="int" name="INIMIX">     1</i>
     <i type="int" name="MIXPRE">     1</i>
     <i type="int" name="MREMOVE">     5</i>
    </separator>
   </separator>
   <separator name="electronic dipolcorrection" >
    <i type="logical" name="LDIPOL"> F  </i>
    <i type="logical" name="LMONO"> F  </i>
    <i type="int" name="IDIPOL">     0</i>
    <i name="EPSILON">      1.00000000</i>
    <v name="DIPOL">   -100.00000000   -100.00000000   -100.00000000</v>
    <i name="EFIELD">      0.00000000</i>
   </separator>
  </separator>
  <separator name="grids" >
   <i type="int" name="NGX">    18</i>
   <i type="int" name="NGY">    18</i>
   <i type="int" name="NGZ">    18</i>
   <i type="int" name="NGXF">    36</i>
   <i type="int" name="NGYF">    36</i>
   <i type="int" name="NGZF">    36</i>
   <i type="logical" name="ADDGRID"> F  </i>
  </separator>
  <separator name="ionic" >
   <i type="int" name="NSW">    15</i>
   <i type="int" name="IBRION">     2</i>
   <i type="int" name="MDALGO">     0</i>
   <i type="int" name="ISIF">     3</i>
   <i name="PSTRESS">      0.00000000</i>
   <i name="EDIFFG">     -0.01000000</i>
   <i type="int" name="NFREE">     1</i>
   <i name="POTIM">      0.50000000</i>
   <i name="SMASS">     -3.00000000</i>
   <i name="SCALEE">      1.00000000</i>
  </separator>
  <separator name="ionic md" >
   <i name="TEBEG">      0.00010000</i>
   <i name="TEEND">      0.00010000</i>
   <i type="int" name="NBLOCK">     1</i>
   <i type="int" name="KBLOCK">    15</i>
   <i type="int" name="NPACO">   256</i>
   <i name="APACO">     16.00000000</i>
  </separator>
  <separator name="symmetry" >
   <i type="int" name="ISYM">     2</i>
   <i name="SYMPREC">      0.00001000</i>
  </separator>
  <separator name="dos" >
   <i type="int" name="LORBIT">     0</i>
   <v name="RWIGS">     -1.00000000</v>
   <i type="int" name="NEDOS">   301</i>
   <i name="EMIN">     10.00000000</i>
   <i name="EMAX">    -10.00000000</i>
   <i name="EFERMI">      0.00000000</i>
  </separator>
  <separator name="writing" >
   <i type="int" name="NWRITE">     2</i>
   <i type="logical" name="LWAVE"> T  </i>
   <i type="logical" name="LDOWNSAMPLE"> F  </i>
   <i type="logical" name="LCHARG"> T  </i>
   <i type="logical" name="LPARD"> F  </i>
   <i type="logical" name="LVTOT"> F  </i>
   <i type="logical" name="LVHAR"> F  </i>
   <i type="logical" name="LELF"> F  </i>
   <i type="logical" name="LOPTICS"> F  </i>
   <v name="STM">      0.00000000      0.00000000      0.00000000      0.00000000      0.00000000      0.00000000      0.00000000</v>
  </separator>
  <separator name="performance" >
   <i type="int" name="NPAR">     8</i>
   <i type="int" name="NSIM">     4</i>
   <i type="int" name="NBLK">    -1</i>
   <i type="logical" name="LPLANE"> T  </i>
   <i type="logical" name="LSCALAPACK"> T  </i>
   <i type="logical" name="LSCAAWARE"> F  </i>
   <i type="logical" name="LSCALU"> F  </i>
   <i type="logical" name="LASYNC"> F  </i>
   <i type="logical" name="LORBITALREAL"> F  </i>
  </separator>
  <separator name="miscellaneous" >
   <i type="int" name="IDIOT">     3</i>
   <i type="int" name="ISPECIAL">     0</i>
   <i type="logical" name="LMUSIC"> F  </i>
   <v name="POMASS">     28.08500000</v>
   <v name="DARWINR">      0.00000000</v>
   <v name="DARWINV">      1.00000000</v>
   <i type="logical" name="LCORR"> T  </i>
  </separator>
  <i type="logical" name="GGA_COMPAT"> T  </i>
  <i type="logical" name="LBERRY"> F  </i>
  <i type="int" name="ICORELEVEL">     0</i>
  <i type="logical" name="LDAU"> F  </i>
  <i type="int" name="I_CONSTRAINED_M">     0</i>
  <separator name="electronic exchange-correlation" >
   <i type="string" name="GGA">--</i>
   <i type="int" name="VOSKOWN">     0</i>
   <i type="logical" name="LHFCALC"> F  </i>
   <i type="string" name="PRECFOCK"></i>
   <i type="logical" name="LSYMGRAD"> F  </i>
   <i type="logical" name="LHFONE"> F  </i>
   <i type="logical" name="LRHFCALC"> F  </i>
   <i type="logical" name="LTHOMAS"> F  </i>
   <i type="logical" name="LMODELHF"> F  </i>
   <i name="ENCUT4O">     -1.00000000</i>
   <i type="int" name="EXXOEP">     0</i>
   <i type="int" name="FOURORBIT">     0</i>
   <i name="AEXX">      0.00000000</i>
   <i name="HFALPHA">      0.00000000</i>
   <i name="MCALPHA">      0.00000000</i>
   <i name="ALDAX">      1.00000000</i>
   <i name="AGGAX">      1.00000000</i>
   <i name="ALDAC">      1.00000000</i>
   <i name="AGGAC">      1.00000000</i>
   <i type="int" name="NKREDX">     1</i>
   <i type="int" name="NKREDY">     1</i>
   <i type="int" name="NKREDZ">     1</i>
   <i type="logical" name="SHIFTRED"> F  </i>
   <i type="logical" name="ODDONLY"> F  </i>
   <i type="logical" name="EVENONLY"> F  </i>
   <i type="int" name="LMAXFOCK">     0</i>
   <i type="int" name="NMAXFOCKAE">     0</i>
   <i type="logical" name="LFOCKAEDFT"> F  </i>
   <i name="HFSCREEN">      0.00000000</i>
   <i name="HFSCREENC">      0.00000000</i>
   <i type="int" name="NBANDSGWLOW">     0</i>
  </separator>
  <separator name="vdW DFT" >
   <i type="logical" name="LUSE_VDW"> F  </i>
   <i name="Zab_VDW">     -0.84910000</i>
   <i name="PARAM1">      0.12340000</i>
   <i name="PARAM2">      1.00000000</i>
   <i name="PARAM3">      0.00000000</i>
  </separator>
  <separator name="model GW" >
   <i type="int" name="MODEL_GW">     0</i>
   <i name="MODEL_EPS0">     12.00772552</i>
   <i name="MODEL_ALPHA">      1.00000000</i>
  </separator>
  <separator name="linear response parameters" >
   <i type="logical" name="LEPSILON"> F  </i>
   <i type="logical" name="LRPA"> F  </i>
   <i type="logical" name="LNABLA"> F  </i>
   <i type="logical" name="LVEL"> F  </i>
   <i type="int" name="KINTER">     0</i>
   <i name="CSHIFT">      0.10000000</i>
   <i name="OMEGAMAX">     -1.00000000</i>
   <i name="DEG_THRESHOLD">      0.00200000</i>
   <i name="RTIME">     -0.10000000</i>
   <i name="WPLASMAI">      0.00000000</i>
   <v name="DFIELD">      0.00000000      0.00000000      0.00000000</v>
   <v name="WPLASMA">      0.00000000      0.00000000      0.00000000      0.00000000      0.00000000      0.00000000      0.00000000      0.00000000      0.00000000</v>
  </separator>
  <separator name="orbital magnetization" >
   <i type="logical" name="NUCIND"> F  </i>
   <v name="MAGPOS">      0.00000000      0.00000000      0.00000000</v>
   <i type="logical" name="LNICSALL"> T  </i>
   <i type="logical" name="ORBITALMAG"> F  </i>
   <i type="logical" name="LMAGBLOCH"> F  </i>
   <i type="logical" name="LCHIMAG"> F  </i>
   <i type="logical" name="LGAUGE"> T  </i>
   <i type="int" name="MAGATOM">     0</i>
   <v name="MAGDIPOL">      0.00000000      0.00000000      0.00000000</v>
   <v name="AVECCONST">      0.00000000      0.00000000      0.00000000</v>
  </separator>
  <separator name="response functions" >
   <i type="logical" name="LADDER"> F  </i>
   <i type="logical" name="LRPAFORCE"> F  </i>
   <i type="logical" name="LFXC"> F  </i>
   <i type="logical" name="LHARTREE"> T  </i>
   <i type="int" name="IBSE">     0</i>
   <v type="int" name="KPOINT">    -1     0     0     0</v>
   <i type="logical" name="LTCTE"> F  </i>
   <i type="logical" name="LTETE"> F  </i>
   <i type="logical" name="LTRIPLET"> F  </i>
   <i type="logical" name="LFXCEPS"> F  </i>
   <i type="logical" name="LFXHEG"> F  </i>
   <i type="int" name="NATURALO">     2</i>
   <i type="logical" name="L2ORDER"> F  </i>
   <i type="logical" name="LMP2LT"> F  </i>
   <i type="logical" name="LUSEW"> F  </i>
   <i name="ENCUTGW">     -2.00000000</i>
   <i name="ENCUTGWSOFT">     -2.00000000</i>
   <i name="ENCUTLF">     -1.00000000</i>
   <i type="int" name="LMAXMP2">    -1</i>
   <i name="SCISSOR">      0.00000000</i>
   <i type="int" name="NOMEGA">     0</i>
   <i type="int" name="NOMEGAR">     0</i>
   <i type="int" name="NBANDSGW">    -1</i>
   <i type="int" name="NBANDSO">    -1</i>
   <i type="int" name="NBANDSV">    -1</i>
   <i type="int" name="NELM">     1</i>
   <i type="int" name="NELMHF">     1</i>
   <i type="int" name="DIM">     3</i>
   <i type="int" name="ANTIRES">     0</i>
   <i name="OMEGAMAX">    -30.00000000</i>
   <i name="OMEGAMIN">    -30.00000000</i>
   <i name="OMEGATL">   -200.00000000</i>
   <i type="int" name="OMEGAGRID">   140</i>
   <i name="CSHIFT">     -0.10000000</i>
   <i type="logical" name="SELFENERGY"> F  </i>
   <i type="logical" name="LSPECTRAL"> F  </i>
   <i type="logical" name="LSPECTRALGW"> F  </i>
   <i type="logical" name="LSINGLES"> F  </i>
   <i type="logical" name="LFERMIGW"> F  </i>
   <i type="logical" name="ODDONLYGW"> F  </i>
   <i type="logical" name="EVENONLYGW"> F  </i>
   <i type="int" name="NKREDLFX">     1</i>
   <i type="int" name="NKREDLFY">     1</i>
   <i type="int" name="NKREDLFZ">     1</i>
   <i type="int" name="MAXMEM">  2800</i>
   <i type="int" name="TELESCOPE">     0</i>
   <i type="int" name="TAUPAR">     1</i>
   <i type="int" name="OMEGAPAR">    -1</i>
   <i name="LAMBDA">      1.00000000</i>
  </separator>
  <separator name="External order field" >
   <i name="OFIELD_KAPPA">      0.00000000</i>
   <v name="OFIELD_K">      0.00000000      0.00000000      0.00000000</v>
   <i name="OFIELD_Q6_NEAR">      0.00000000</i>
   <i name="OFIELD_Q6_FAR">      0.00000000</i>
   <i name="OFIELD_A">      0.00000000</i>
  </separator>
 </parameters>
 <atominfo>
  <atoms>       2 </atoms>
  <types>       1 </types>
  <array name="atoms" >
   <dimension dim="1">ion</dimension>
   <field type="string">element</field>
   <field type="int">atomtype</field>
   <set>
    <rc><c>Si</c><c>   1</c></rc>
    <rc><c>Si</c><c>   1</c></rc>
   </set>
  </array>
  <array name="atomtypes" >
   <dimension dim="1">type</dimension>
   <field type="int">atomspertype</field>
   <field type="string">element</field>
   <field>mass</field>
   <field>valence</field>
   <field type="string">pseudopotential</field>
   <set>
    <rc><c>   2</c><c>Si</c><c>     28.08500000</c><c>      4.00000000</c><c> PAW_PBE Si 05Jan2001                   </c></rc>
   </set>
  </array>
 </atominfo>
 <structure name="initialpos" >
  <crystal>
   <varray name="basis" >
    <v>       0.00000000       2.71500000       2.71500000 </v>
    <v>       2.71500000       0.00000000       2.71500000 </v>
    <v>       2.71500000       2.71500000       0.00000000 </v>
   </varray>
   <i name="volume">     40.02575175 </i>
   <varray name="rec_basis" >
    <v>      -0.18416206       0.18416206       0.18416206 </v>
    <v>       0.18416206      -0.18416206       0.18416206 </v>
    <v>       0.18416206       0.18416206      -0.18416206 </v>
   </varray>
  </crystal>
  <varray name="positions" >
   <v>       0.50000000       0.50000000       0.50000000 </v>
   <v>       0.75000000       0.75000000       0.75000000 </v>
  </varray>
 </structure>
 <calculation>
  <scstep>
   <time name="dav">    0.14    0.15</time>
   <time name="total">    0.19    0.21</time>
   <energy>
    <i name="alphaZ">      3.36414203 </i>
    <i name="ewald">   -228.56352493 </i>
    <i name="hartreedc">    -11.00108243 </i>
    <i name="XCdc">    -18.60185131 </i>
    <i name="pawpsdc">     65.95520812 </i>
    <i name="pawaedc">    -30.76852678 </i>
    <i name="eentropy">     -0.02600003 </i>
    <i name="bandstr">     16.84599158 </i>
    <i name="atom">    206.13125414 </i>
    <i name="e_fr_energy">      3.33561038 </i>
    <i name="e_wo_entrp">      3.36161041 </i>
    <i name="e_0_energy">      3.34861040 </i>
   </energy>
  </scstep>
  <scstep>
   <time name="dav">    0.24    0.24</time>
   <time name="total">    0.24    0.24</time>
   <energy>
    <i name="e_fr_energy">    -10.81410011 </i>
    <i name="e_wo_entrp">    -10.81403101 </i>
    <i name="e_0_energy">    -10.81406556 </i>
   </energy>
  </scstep>
  <scstep>
   <time name="dav">    0.15    0.16</time>
   <time name="total">    0.15    0.16</time>
   <energy>
    <i name="e_fr_energy">    -10.96710078 </i>
    <i name="e_wo_entrp">    -10.96704544 </i>
    <i name="e_0_energy">    -10.96707311 </i>
   </energy>
  </scstep>
  <scstep>
   <time name="dav">    0.24    0.25</time>
   <time name="total">    0.25    0.26</time>
   <energy>
    <i name="e_fr_energy">    -10.96785345 </i>
    <i name="e_wo_entrp">    -10.96779816 </i>
    <i name="e_0_energy">    -10.96782580 </i>
   </energy>
  </scstep>
  <scstep>
   <time name="dav">    0.14    0.15</time>
   <time name="total">    0.17    0.18</time>
   <energy>
    <i name="e_fr_energy">    -10.96785370 </i>
    <i name="e_wo_entrp">    -10.96779841 </i>
    <i name="e_0_energy">    -10.96782605 </i>
   </energy>
  </scstep>
  <scstep>
   <time name="dav">    0.16    0.16</time>
   <time name="total">    0.22    0.23</time>
   <energy>
    <i name="e_fr_energy">    -10.83646338 </i>
    <i name="e_wo_entrp">    -10.83621274 </i>
    <i name="e_0_energy">    -10.83633806 </i>
   </energy>
  </scstep>
  <scstep>
   <time name="dav">    0.14    0.15</time>
   <time name="total">    0.20    0.22</time>
   <energy>
    <i name="e_fr_energy">    -10.77664283 </i>
    <i name="e_wo_entrp">    -10.77548088 </i>
    <i name="e_0_energy">    -10.77606185 </i>
   </energy>
  </scstep>
  <scstep>
   <time name="dav">    0.14    0.15</time>
   <time name="total">    0.20    0.22</time>
   <energy>
    <i name="e_fr_energy">    -10.77818719 </i>
    <i name="e_wo_entrp">    -10.77721489 </i>
    <i name="e_0_energy">    -10.77770104 </i>
   </energy>
  </scstep>
  <scstep>
   <time name="dav">    0.13    0.13</time>
   <time name="total">    0.17    0.17</time>
   <energy>
    <i name="alphaZ">      3.36414203 </i>
    <i name="ewald">   -228.56352493 </i>
    <i name="hartreedc">    -15.04125471 </i>
    <i name="XCdc">    -17.94428389 </i>
    <i name="pawpsdc">     74.45082638 </i>
    <i name="pawaedc">    -39.49224074 </i>
    <i name="eentropy">     -0.00097109 </i>
    <i name="bandstr">      6.31776878 </i>
    <i name="atom">    206.13125414 </i>
    <i name="e_fr_energy">    -10.77828402 </i>
    <i name="e_wo_entrp">    -10.77731293 </i>
    <i name="e_0_energy">    -10.77779848 </i>
   </energy>
  </scstep>
  <structure>
   <crystal>
    <varray name="basis" >
     <v>       0.00000000       2.71500000       2.71500000 </v>
     <v>       2.71500000       0.00000000       2.71500000 </v>
     <v>       2.71500000       2.71500000       0.00000000 </v>
    </varray>
    <i name="volume">     40.02575175 </i>
    <varray name="rec_basis" >
     <v>      -0.18416206       0.18416206       0.18416206 </v>
     <v>       0.18416206      -0.18416206       0.18416206 </v>
     <v>       0.18416206       0.18416206      -0.18416206 </v>
    </varray>
   </crystal>
   <varray name="positions" >
    <v>       0.50000000       0.50000000       0.50000000 </v>
    <v>       0.75000000       0.75000000       0.75000000 </v>
   </varray>
  </structure>
  <varray name="forces" >
   <v>      -0.00000000       0.00000000       0.00000000 </v>
   <v>       0.00000000      -0.00000000      -0.00000000 </v>
  </varray>
  <varray name="stress" >
   <v>      21.62052016      -0.00000000       0.00000000 </v>
   <v>      -0.00000000      21.62052016       0.00000000 </v>
   <v>       0.00000000       0.00000000      21.62052016 </v>
  </varray>
  <energy>
   <i name="e_fr_energy">    -10.77828402 </i>
   <i name="e_wo_entrp">    -10.77779848 </i>
   <i name="e_0_energy">     -0.00097109 </i>
  </energy>
  <time name="totalsc">    2.99    3.99</time>
 </calculation>
 <calculation>
  <scstep>
   <time name="dav">    0.14    0.14</time>
   <time name="total">    0.20    0.20</time>
   <energy>
    <i name="alphaZ">      3.23600557 </i>
    <i name="ewald">   -225.62397062 </i>
    <i name="hartreedc">    -14.85903340 </i>
    <i name="XCdc">    -18.13449896 </i>
    <i name="pawpsdc">     74.44445524 </i>
    <i name="pawaedc">    -39.48674467 </i>
    <i name="eentropy">     -0.00035371 </i>
    <i name="bandstr">      3.50329930 </i>
    <i name="atom">    206.13125414 </i>
    <i name="e_fr_energy">    -10.78958711 </i>
    <i name="e_wo_entrp">    -10.78923339 </i>
    <i name="e_0_energy">    -10.78941025 </i>
   </energy>
  </scstep>
  <scstep>
   <time name="dav">    0.17    0.17</time>
   <time name="total">    0.23    0.24</time>
   <energy>
    <i name="e_fr_energy">    -10.78422124 </i>
    <i name="e_wo_entrp">    -10.78377465 </i>
    <i name="e_0_energy">    -10.78399795 </i>
   </energy>
  </scstep>
  <scstep>
   <time name="dav">    0.16    0.16</time>
   <time name="total">    0.22    0.22</time>
   <energy>
    <i name="e_fr_energy">    -10.78136252 </i>
    <i name="e_wo_entrp">    -10.78077023 </i>
    <i name="e_0_energy">    -10.78106637 </i>
   </energy>
  </scstep>
  <scstep>
   <time name="dav">    0.08    0.09</time>
   <time name="total">    0.12    0.13</time>
   <energy>
    <i name="alphaZ">      3.23600557 </i>
    <i name="ewald">   -225.62397062 </i>
    <i name="hartreedc">    -15.51155180 </i>
    <i name="XCdc">    -18.12057143 </i>
    <i name="pawpsdc">     73.25118972 </i>
    <i name="pawaedc">    -38.26103360 </i>
    <i name="eentropy">     -0.00058265 </i>
    <i name="bandstr">      4.11790718 </i>
    <i name="atom">    206.13125414 </i>
    <i name="e_fr_energy">    -10.78135349 </i>
    <i name="e_wo_entrp">    -10.78077084 </i>
    <i name="e_0_energy">    -10.78106216 </i>
   </energy>
  </scstep>
  <structure>
   <crystal>
    <varray name="basis" >
     <v>      -0.00000000       2.75037253       2.75037253 </v>
     <v>       2.75037253      -0.00000000       2.75037253 </v>
     <v>       2.75037253       2.75037253       0.00000000 </v>
    </varray>
    <i name="volume">     41.61065569 </i>
    <varray name="rec_basis" >
     <v>      -0.18179356       0.18179356       0.18179356 </v>
     <v>       0.18179356      -0.18179356       0.18179356 </v>
     <v>       0.18179356       0.18179356      -0.18179356 </v>
    </varray>
   </crystal>
   <varray name="positions" >
    <v>       0.50000000       0.50000000       0.50000000 </v>
    <v>       0.75000000       0.75000000       0.75000000 </v>
   </varray>
  </structure>
  <varray name="forces" >
   <v>      -0.00000000      -0.00000000      -0.00000000 </v>
   <v>       0.00000000       0.00000000       0.00000000 </v>
  </varray>
  <varray name="stress" >
   <v>     -13.81400881       0.00000000      -0.00000000 </v>
   <v>       0.00000000     -13.81400881      -0.00000000 </v>
   <v>       0.00000000       0.00000000     -13.81400881 </v>
  </varray>
  <energy>
   <i name="e_fr_energy">    -10.78135349 </i>
   <i name="e_wo_entrp">    -10.78106216 </i>
   <i name="e_0_energy">     -0.00058265 </i>
  </energy>
  <time name="totalsc">    1.00    1.13</time>
 </calculation>
 <calculation>
  <scstep>
   <time name="dav">    0.14    0.14</time>
   <time name="total">    0.20    0.21</time>
   <energy>
    <i name="alphaZ">      3.28635380 </i>
    <i name="ewald">   -226.78809681 </i>
    <i name="hartreedc">    -15.59550871 </i>
    <i name="XCdc">    -18.04655628 </i>
    <i name="pawpsdc">     73.19997422 </i>
    <i name="pawaedc">    -38.20763155 </i>
    <i name="eentropy">     -0.00085072 </i>
    <i name="bandstr">      5.23544505 </i>
    <i name="atom">    206.13125414 </i>
    <i name="e_fr_energy">    -10.78561686 </i>
    <i name="e_wo_entrp">    -10.78476614 </i>
    <i name="e_0_energy">    -10.78519150 </i>
   </energy>
  </scstep>
  <scstep>
   <time name="dav">    0.16    0.16</time>
   <time name="total">    0.22    0.23</time>
   <energy>
    <i name="e_fr_energy">    -10.78474963 </i>
    <i name="e_wo_entrp">    -10.78396563 </i>
    <i name="e_0_energy">    -10.78435763 </i>
   </energy>
  </scstep>
  <scstep>
   <time name="dav">    0.13    0.13</time>
   <time name="total">    0.19    0.21</time>
   <energy>
    <i name="e_fr_energy">    -10.78429779 </i>
    <i name="e_wo_entrp">    -10.78359280 </i>
    <i name="e_0_energy">    -10.78394530 </i>
   </energy>
  </scstep>
  <scstep>
   <time name="dav">    0.08    0.08</time>
   <time name="total">    0.12    0.14</time>
   <energy>
    <i name="alphaZ">      3.28635380 </i>
    <i name="ewald">   -226.78809681 </i>
    <i name="hartreedc">    -15.33098717 </i>
    <i name="XCdc">    -18.05131808 </i>
    <i name="pawpsdc">     73.68370945 </i>
    <i name="pawaedc">    -38.70437625 </i>
    <i name="eentropy">     -0.00070934 </i>
    <i name="bandstr">      4.98986893 </i>
    <i name="atom">    206.13125414 </i>
    <i name="e_fr_energy">    -10.78430132 </i>
    <i name="e_wo_entrp">    -10.78359198 </i>
    <i name="e_0_energy">    -10.78394665 </i>
   </energy>
  </scstep>
  <structure>
   <crystal>
    <varray name="basis" >
     <v>      -0.00000000       2.73625459       2.73625459 </v>
     <v>       2.73625459      -0.00000000       2.73625459 </v>
     <v>       2.73625459       2.73625459       0.00000000 </v>
    </varray>
    <i name="volume">     40.97316414 </i>
    <varray name="rec_basis" >
     <v>      -0.18273153       0.18273153       0.18273153 </v>
     <v>       0.18273153      -0.18273153       0.18273153 </v>
     <v>       0.18273153       0.18273153      -0.18273153 </v>
    </varray>
   </crystal>
   <varray name="positions" >
    <v>       0.50000000       0.50000000       0.50000000 </v>
    <v>       0.75000000       0.75000000       0.75000000 </v>
   </varray>
  </structure>
  <varray name="forces" >
   <v>       0.00000000       0.00000000      -0.00000000 </v>
   <v>      -0.00000000      -0.00000000       0.00000000 </v>
  </varray>
  <varray name="stress" >
   <v>      -0.66095954      -0.00000000       0.00000000 </v>
   <v>      -0.00000000      -0.66095954       0.00000000 </v>
   <v>       0.00000000       0.00000000      -0.66095954 </v>
  </varray>
  <energy>
   <i name="e_fr_energy">    -10.78430132 </i>
   <i name="e_wo_entrp">    -10.78394665 </i>
   <i name="e_0_energy">     -0.00070934 </i>
  </energy>
  <time name="totalsc">    0.98    1.20</time>
  <eigenvalues>
   <array>
    <dimension dim="1">band</dimension>
    <dimension dim="2">kpoint</dimension>
    <dimension dim="3">spin</dimension>
    <field>eigene</field>
    <field>occ</field>
    <set>
     <set comment="spin 1">
      <set comment="kpoint 1">
       <r>   -6.1906    1.0000 </r>
       <r>    5.6144    0.9794 </r>
       <r>    5.6144    0.9794 </r>
       <r>    5.6144    0.9794 </r>
       <r>    8.1633    0.0000 </r>
       <r>    8.1633    0.0000 </r>
       <r>    8.1633    0.0000 </r>
       <r>    8.7251    0.0000 </r>
      </set>
      <set comment="kpoint 2">
       <r>   -5.6834    1.0000 </r>
       <r>    2.6321    1.0000 </r>
       <r>    5.0465    1.0000 </r>
       <r>    5.0465    1.0000 </r>
       <r>    7.7568    0.0000 </r>
       <r>    8.9517    0.0000 </r>
       <r>    8.9517    0.0000 </r>
       <r>   11.4761    0.0000 </r>
      </set>
      <set comment="kpoint 3">
       <r>   -4.3525    1.0000 </r>
       <r>   -0.5704    1.0000 </r>
       <r>    4.5064    1.0000 </r>
       <r>    4.5064    1.0000 </r>
       <r>    7.1536    0.0000 </r>
       <r>    9.0291    0.0000 </r>
       <r>    9.0292    0.0000 </r>
       <r>   13.4119    0.0000 </r>
      </set>
      <set comment="kpoint 4">
       <r>   -5.5086    1.0000 </r>
       <r>    2.9777    1.0000 </r>
       <r>    4.1599    1.0000 </r>
       <r>    4.1599    1.0000 </r>
       <r>    7.0863    0.0000 </r>
       <r>    9.4589    0.0000 </r>
       <r>   10.4480    0.0000 </r>
       <r>   10.4480    0.0000 </r>
      </set>
      <set comment="kpoint 5">
       <r>   -4.3914    1.0000 </r>
       <r>    0.3522    1.0000 </r>
       <r>    3.0380    1.0000 </r>
       <r>    3.6600    1.0000 </r>
       <r>    7.3975    0.0000 </r>
       <r>    9.6779    0.0000 </r>
       <r>   10.4661    0.0000 </r>
       <r>   11.0032    0.0000 </r>
      </set>
      <set comment="kpoint 6">
       <r>   -3.5321    1.0000 </r>
       <r>   -1.0039    1.0000 </r>
       <r>    2.2463    1.0000 </r>
       <r>    3.9343    1.0000 </r>
       <r>    7.6675    0.0000 </r>
       <r>   10.1540    0.0000 </r>
       <r>   10.3878    0.0000 </r>
       <r>   13.0998    0.0000 </r>
      </set>
      <set comment="kpoint 7">
       <r>   -4.8691    1.0000 </r>
       <r>    1.1680    1.0000 </r>
       <r>    2.6824    1.0000 </r>
       <r>    4.7828    1.0000 </r>
       <r>    8.4559    0.0000 </r>
       <r>    9.5711    0.0000 </r>
       <r>    9.8800    0.0000 </r>
       <r>   11.2594    0.0000 </r>
      </set>
      <set comment="kpoint 8">
       <r>   -3.5315    1.0000 </r>
       <r>   -0.5212    1.0000 </r>
       <r>    2.9757    1.0000 </r>
       <r>    2.9757    1.0000 </r>
       <r>    6.2304    0.0103 </r>
       <r>    6.9622    0.0000 </r>
       <r>   14.0036    0.0000 </r>
       <r>   14.0036    0.0000 </r>
      </set>
      <set comment="kpoint 9">
       <r>   -2.3582    1.0000 </r>
       <r>   -1.7554    1.0000 </r>
       <r>    1.6481    1.0000 </r>
       <r>    3.0915    1.0000 </r>
       <r>    6.6757    0.0000 </r>
       <r>    8.7591    0.0000 </r>
       <r>   13.5982    0.0000 </r>
       <r>   14.1789    0.0000 </r>
      </set>
      <set comment="kpoint 10">
       <r>   -3.1059    1.0000 </r>
       <r>   -0.8980    1.0000 </r>
       <r>    1.7280    1.0000 </r>
       <r>    2.6939    1.0000 </r>
       <r>    8.9922    0.0000 </r>
       <r>    9.3918    0.0000 </r>
       <r>    9.9751    0.0000 </r>
       <r>   13.3066    0.0000 </r>
      </set>
     </set>
    </set>
   </array>
  </eigenvalues>
  <separator name="orbital magnetization" >
   <v name="MAGDIPOLOUT">      0.00000000      0.00000000      0.00000000</v>
  </separator>
  <dos>
   <i name="efermi">      5.90301696 </i>
   <total>
    <array>
     <dimension dim="1">gridpoints</dimension>
     <dimension dim="2">spin</dimension>
     <field>energy</field>
     <field>total</field>
     <field>integrated</field>
     <set>
      <set comment="spin 1">
       <r>    -8.1906     0.0000     0.0000 </r>
       <r>    -8.1094     0.0000     0.0000 </r>
       <r>    -8.0281     0.0000     0.0000 </r>
       <r>    -7.9469     0.0000     0.0000 </r>
       <r>    -7.8657     0.0000     0.0000 </r>
       <r>    -7.7844     0.0000     0.0000 </r>
       <r>    -7.7032     0.0000     0.0000 </r>
       <r>    -7.6220     0.0000     0.0000 </r>
       <r>    -7.5407     0.0000     0.0000 </r>
       <r>    -7.4595     0.0000     0.0000 </r>
       <r>    -7.3783     0.0000     0.0000 </r>
       <r>    -7.2971     0.0000     0.0000 </r>
       <r>    -7.2158     0.0000     0.0000 </r>
       <r>    -7.1346     0.0000     0.0000 </r>
       <r>    -7.0534     0.0000     0.0000 </r>
       <r>    -6.9721     0.0000     0.0000 </r>
       <r>    -6.8909     0.0000     0.0000 </r>
       <r>    -6.8097     0.0000     0.0000 </r>
       <r>    -6.7284     0.0000     0.0000 </r>
       <r>    -6.6472     0.0001     0.0000 </r>
       <r>    -6.5660     0.0007     0.0001 </r>
       <r>    -6.4847     0.0029     0.0003 </r>
       <r>    -6.4035     0.0093     0.0011 </r>
       <r>    -6.3223     0.0216     0.0028 </r>
       <r>    -6.2410     0.0365     0.0058 </r>
       <r>    -6.1598     0.0450     0.0094 </r>
       <r>    -6.0786     0.0429     0.0129 </r>
       <r>    -5.9973     0.0423     0.0163 </r>
       <r>    -5.9161     0.0716     0.0222 </r>
       <r>    -5.8349     0.1592     0.0351 </r>
       <r>    -5.7536     0.3018     0.0596 </r>
       <r>    -5.6724     0.4454     0.0958 </r>
       <r>    -5.5912     0.5185     0.1379 </r>
       <r>    -5.5100     0.4879     0.1775 </r>
       <r>    -5.4287     0.3743     0.2079 </r>
       <r>    -5.3475     0.2312     0.2267 </r>
       <r>    -5.2663     0.1157     0.2361 </r>
       <r>    -5.1850     0.0645     0.2414 </r>
       <r>    -5.1038     0.0954     0.2491 </r>
       <r>    -5.0226     0.2158     0.2666 </r>
       <r>    -4.9413     0.3924     0.2985 </r>
       <r>    -4.8601     0.5236     0.3411 </r>
       <r>    -4.7789     0.5174     0.3831 </r>
       <r>    -4.6976     0.4191     0.4171 </r>
       <r>    -4.6164     0.4082     0.4503 </r>
       <r>    -4.5352     0.6390     0.5022 </r>
       <r>    -4.4539     1.0603     0.5883 </r>
       <r>    -4.3727     1.3850     0.7008 </r>
       <r>    -4.2915     1.3341     0.8092 </r>
       <r>    -4.2102     0.9382     0.8854 </r>
       <r>    -4.1290     0.4811     0.9245 </r>
       <r>    -4.0478     0.1806     0.9392 </r>
       <r>    -3.9666     0.0545     0.9436 </r>
       <r>    -3.8853     0.0403     0.9469 </r>
       <r>    -3.8041     0.1251     0.9570 </r>
       <r>    -3.7229     0.3629     0.9865 </r>
       <r>    -3.6416     0.7717     1.0492 </r>
       <r>    -3.5604     1.1923     1.1460 </r>
       <r>    -3.4792     1.3474     1.2555 </r>
       <r>    -3.3979     1.1525     1.3491 </r>
       <r>    -3.3167     0.8656     1.4194 </r>
       <r>    -3.2355     0.7999     1.4844 </r>
       <r>    -3.1542     0.9656     1.5628 </r>
       <r>    -3.0730     1.0859     1.6510 </r>
       <r>    -2.9918     0.9400     1.7274 </r>
       <r>    -2.9105     0.5972     1.7759 </r>
       <r>    -2.8293     0.2767     1.7984 </r>
       <r>    -2.7481     0.0983     1.8064 </r>
       <r>    -2.6668     0.0499     1.8104 </r>
       <r>    -2.5856     0.0970     1.8183 </r>
       <r>    -2.5044     0.2292     1.8369 </r>
       <r>    -2.4232     0.4075     1.8700 </r>
       <r>    -2.3419     0.5267     1.9128 </r>
       <r>    -2.2607     0.4942     1.9530 </r>
       <r>    -2.1795     0.3387     1.9805 </r>
       <r>    -2.0982     0.1806     1.9951 </r>
       <r>    -2.0170     0.1172     2.0047 </r>
       <r>    -1.9358     0.1784     2.0192 </r>
       <r>    -1.8545     0.3353     2.0464 </r>
       <r>    -1.7733     0.4920     2.0864 </r>
       <r>    -1.6921     0.5276     2.1292 </r>
       <r>    -1.6108     0.4107     2.1626 </r>
       <r>    -1.5296     0.2324     2.1815 </r>
       <r>    -1.4484     0.0987     2.1895 </r>
       <r>    -1.3671     0.0503     2.1936 </r>
       <r>    -1.2859     0.1032     2.2019 </r>
       <r>    -1.2047     0.3166     2.2277 </r>
       <r>    -1.1234     0.7636     2.2897 </r>
       <r>    -1.0422     1.3845     2.4022 </r>
       <r>    -0.9610     1.8963     2.5562 </r>
       <r>    -0.8798     1.9810     2.7171 </r>
       <r>    -0.7985     1.6186     2.8486 </r>
       <r>    -0.7173     1.1279     2.9402 </r>
       <r>    -0.6361     0.8225     3.0070 </r>
       <r>    -0.5548     0.7180     3.0654 </r>
       <r>    -0.4736     0.6295     3.1165 </r>
       <r>    -0.3924     0.4521     3.1532 </r>
       <r>    -0.3111     0.2450     3.1731 </r>
       <r>    -0.2299     0.0981     3.1811 </r>
       <r>    -0.1487     0.0296     3.1835 </r>
       <r>    -0.0674     0.0123     3.1845 </r>
       <r>     0.0138     0.0334     3.1872 </r>
       <r>     0.0950     0.1237     3.1972 </r>
       <r>     0.1763     0.3415     3.2250 </r>
       <r>     0.2575     0.6845     3.2806 </r>
       <r>     0.3387     0.9951     3.3614 </r>
       <r>     0.4200     1.0496     3.4467 </r>
       <r>     0.5012     0.8030     3.5119 </r>
       <r>     0.5824     0.4457     3.5481 </r>
       <r>     0.6637     0.1798     3.5627 </r>
       <r>     0.7449     0.0552     3.5672 </r>
       <r>     0.8261     0.0263     3.5693 </r>
       <r>     0.9073     0.0604     3.5743 </r>
       <r>     0.9886     0.1647     3.5876 </r>
       <r>     1.0698     0.3344     3.6148 </r>
       <r>     1.1510     0.4934     3.6549 </r>
       <r>     1.2323     0.5314     3.6980 </r>
       <r>     1.3135     0.4331     3.7332 </r>
       <r>     1.3947     0.3309     3.7601 </r>
       <r>     1.4760     0.4045     3.7930 </r>
       <r>     1.5572     0.7387     3.8530 </r>
       <r>     1.6384     1.2158     3.9517 </r>
       <r>     1.7197     1.5313     4.0761 </r>
       <r>     1.8009     1.4388     4.1930 </r>
       <r>     1.8821     1.0161     4.2755 </r>
       <r>     1.9634     0.5939     4.3238 </r>
       <r>     2.0446     0.4483     4.3602 </r>
       <r>     2.1258     0.6219     4.4107 </r>
       <r>     2.2071     0.9296     4.4862 </r>
       <r>     2.2883     1.0936     4.5751 </r>
       <r>     2.3695     1.0107     4.6572 </r>
       <r>     2.4507     0.9028     4.7305 </r>
       <r>     2.5320     1.0852     4.8187 </r>
       <r>     2.6132     1.5738     4.9465 </r>
       <r>     2.6944     2.0205     5.1106 </r>
       <r>     2.7757     2.1366     5.2842 </r>
       <r>     2.8569     2.0818     5.4533 </r>
       <r>     2.9381     2.1915     5.6313 </r>
       <r>     3.0194     2.4053     5.8267 </r>
       <r>     3.1006     2.3156     6.0148 </r>
       <r>     3.1818     1.7551     6.1574 </r>
       <r>     3.2631     1.0147     6.2398 </r>
       <r>     3.3443     0.4786     6.2787 </r>
       <r>     3.4255     0.3070     6.3036 </r>
       <r>     3.5068     0.4657     6.3414 </r>
       <r>     3.5880     0.8185     6.4079 </r>
       <r>     3.6692     1.1544     6.5017 </r>
       <r>     3.7505     1.3234     6.6092 </r>
       <r>     3.8317     1.3717     6.7206 </r>
       <r>     3.9129     1.4015     6.8345 </r>
       <r>     3.9941     1.3803     6.9466 </r>
       <r>     4.0754     1.2393     7.0473 </r>
       <r>     4.1566     1.0129     7.1295 </r>
       <r>     4.2378     0.7862     7.1934 </r>
       <r>     4.3191     0.6422     7.2456 </r>
       <r>     4.4003     0.6446     7.2979 </r>
       <r>     4.4815     0.7535     7.3591 </r>
       <r>     4.5628     0.8335     7.4268 </r>
       <r>     4.6440     0.8212     7.4935 </r>
       <r>     4.7252     0.7816     7.5570 </r>
       <r>     4.8065     0.7739     7.6199 </r>
       <r>     4.8877     0.7962     7.6846 </r>
       <r>     4.9689     0.8358     7.7525 </r>
       <r>     5.0502     0.8436     7.8210 </r>
       <r>     5.1314     0.7327     7.8805 </r>
       <r>     5.2126     0.5002     7.9211 </r>
       <r>     5.2939     0.2599     7.9423 </r>
       <r>     5.3751     0.1149     7.9516 </r>
       <r>     5.4563     0.0770     7.9578 </r>
       <r>     5.5375     0.1006     7.9660 </r>
       <r>     5.6188     0.1301     7.9766 </r>
       <r>     5.7000     0.1273     7.9869 </r>
       <r>     5.7812     0.0914     7.9944 </r>
       <r>     5.8625     0.0515     7.9985 </r>
       <r>     5.9437     0.0373     8.0016 </r>
       <r>     6.0249     0.0661     8.0069 </r>
       <r>     6.1062     0.1390     8.0182 </r>
       <r>     6.1874     0.2261     8.0366 </r>
       <r>     6.2686     0.2712     8.0586 </r>
       <r>     6.3499     0.2500     8.0789 </r>
       <r>     6.4311     0.2171     8.0966 </r>
       <r>     6.5123     0.2597     8.1177 </r>
       <r>     6.5936     0.3964     8.1499 </r>
       <r>     6.6748     0.5392     8.1937 </r>
       <r>     6.7560     0.5885     8.2415 </r>
       <r>     6.8373     0.5625     8.2872 </r>
       <r>     6.9185     0.5728     8.3337 </r>
       <r>     6.9997     0.6748     8.3885 </r>
       <r>     7.0810     0.8137     8.4546 </r>
       <r>     7.1622     0.9233     8.5296 </r>
       <r>     7.2434     1.0248     8.6129 </r>
       <r>     7.3246     1.1732     8.7082 </r>
       <r>     7.4059     1.3314     8.8163 </r>
       <r>     7.4871     1.4241     8.9320 </r>
       <r>     7.5683     1.4851     9.0526 </r>
       <r>     7.6496     1.5550     9.1789 </r>
       <r>     7.7308     1.5088     9.3015 </r>
       <r>     7.8120     1.2149     9.4002 </r>
       <r>     7.8933     0.7688     9.4627 </r>
       <r>     7.9745     0.3951     9.4947 </r>
       <r>     8.0557     0.2099     9.5118 </r>
       <r>     8.1370     0.1765     9.5261 </r>
       <r>     8.2182     0.2210     9.5441 </r>
       <r>     8.2994     0.3172     9.5698 </r>
       <r>     8.3807     0.4569     9.6070 </r>
       <r>     8.4619     0.5846     9.6544 </r>
       <r>     8.5431     0.6451     9.7068 </r>
       <r>     8.6244     0.6916     9.7630 </r>
       <r>     8.7056     0.8598     9.8329 </r>
       <r>     8.7868     1.2469     9.9342 </r>
       <r>     8.8680     1.8368    10.0834 </r>
       <r>     8.9493     2.4205    10.2800 </r>
       <r>     9.0305     2.6193    10.4928 </r>
       <r>     9.1117     2.2525    10.6757 </r>
       <r>     9.1930     1.6461    10.8094 </r>
       <r>     9.2742     1.3231    10.9169 </r>
       <r>     9.3554     1.4497    11.0347 </r>
       <r>     9.4367     1.7741    11.1788 </r>
       <r>     9.5179     2.0151    11.3425 </r>
       <r>     9.5991     2.1017    11.5132 </r>
       <r>     9.6804     2.0703    11.6814 </r>
       <r>     9.7616     1.9796    11.8422 </r>
       <r>     9.8428     1.9427    12.0000 </r>
       <r>     9.9241     2.0261    12.1646 </r>
       <r>    10.0053     2.1366    12.3382 </r>
       <r>    10.0865     2.1525    12.5130 </r>
       <r>    10.1678     2.1014    12.6837 </r>
       <r>    10.2490     2.1515    12.8585 </r>
       <r>    10.3302     2.4248    13.0554 </r>
       <r>    10.4114     2.7459    13.2785 </r>
       <r>    10.4927     2.6921    13.4972 </r>
       <r>    10.5739     2.0816    13.6663 </r>
       <r>    10.6551     1.2370    13.7668 </r>
       <r>    10.7364     0.6310    13.8180 </r>
       <r>    10.8176     0.4768    13.8567 </r>
       <r>    10.8988     0.6908    13.9129 </r>
       <r>    10.9801     1.0194    13.9957 </r>
       <r>    11.0613     1.1973    14.0929 </r>
       <r>    11.1425     1.1471    14.1861 </r>
       <r>    11.2238     0.9940    14.2669 </r>
       <r>    11.3050     0.8569    14.3365 </r>
       <r>    11.3862     0.7429    14.3968 </r>
       <r>    11.4675     0.6194    14.4471 </r>
       <r>    11.5487     0.4683    14.4852 </r>
       <r>    11.6299     0.2988    14.5094 </r>
       <r>    11.7112     0.1507    14.5217 </r>
       <r>    11.7924     0.0575    14.5264 </r>
       <r>    11.8736     0.0162    14.5277 </r>
       <r>    11.9548     0.0033    14.5280 </r>
       <r>    12.0361     0.0005    14.5280 </r>
       <r>    12.1173     0.0001    14.5280 </r>
       <r>    12.1985     0.0000    14.5280 </r>
       <r>    12.2798     0.0000    14.5280 </r>
       <r>    12.3610     0.0000    14.5280 </r>
       <r>    12.4422     0.0000    14.5280 </r>
       <r>    12.5235     0.0001    14.5280 </r>
       <r>    12.6047     0.0010    14.5281 </r>
       <r>    12.6859     0.0070    14.5287 </r>
       <r>    12.7672     0.0363    14.5316 </r>
       <r>    12.8484     0.1367    14.5427 </r>
       <r>    12.9296     0.3782    14.5734 </r>
       <r>    13.0109     0.7815    14.6369 </r>
       <r>    13.0921     1.2443    14.7380 </r>
       <r>    13.1733     1.6093    14.8687 </r>
       <r>    13.2546     1.7978    15.0148 </r>
       <r>    13.3358     1.8005    15.1610 </r>
       <r>    13.4170     1.6222    15.2928 </r>
       <r>    13.4982     1.3302    15.4009 </r>
       <r>    13.5795     1.0313    15.4846 </r>
       <r>    13.6607     0.7666    15.5469 </r>
       <r>    13.7419     0.5431    15.5910 </r>
       <r>    13.8232     0.4251    15.6255 </r>
       <r>    13.9044     0.4789    15.6644 </r>
       <r>    13.9856     0.6618    15.7182 </r>
       <r>    14.0669     0.8370    15.7862 </r>
       <r>    14.1481     0.8838    15.8580 </r>
       <r>    14.2293     0.7652    15.9201 </r>
       <r>    14.3106     0.5318    15.9633 </r>
       <r>    14.3918     0.2878    15.9867 </r>
       <r>    14.4730     0.1180    15.9963 </r>
       <r>    14.5543     0.0359    15.9992 </r>
       <r>    14.6355     0.0080    15.9999 </r>
       <r>    14.7167     0.0013    16.0000 </r>
       <r>    14.7980     0.0002    16.0000 </r>
       <r>    14.8792     0.0000    16.0000 </r>
       <r>    14.9604     0.0000    16.0000 </r>
       <r>    15.0417     0.0000    16.0000 </r>
       <r>    15.1229     0.0000    16.0000 </r>
       <r>    15.2041     0.0000    16.0000 </r>
       <r>    15.2853     0.0000    16.0000 </r>
       <r>    15.3666     0.0000    16.0000 </r>
       <r>    15.4478     0.0000    16.0000 </r>
       <r>    15.5290     0.0000    16.0000 </r>
       <r>    15.6103     0.0000    16.0000 </r>
       <r>    15.6915     0.0000    16.0000 </r>
       <r>    15.7727     0.0000    16.0000 </r>
       <r>    15.8540     0.0000    16.0000 </r>
       <r>    15.9352     0.0000    16.0000 </r>
       <r>    16.0164     0.0000    16.0000 </r>
       <r>    16.0977     0.0000    16.0000 </r>
       <r>    16.1789     0.0000    16.0000 </r>
      </set>
     </set>
    </array>
   </total>
  </dos>
 </calculation>
 <structure name="finalpos" >
  <crystal>
   <varray name="basis" >
    <v>      -0.00000000       2.73625459       2.73625459 </v>
    <v>       2.73625459      -0.00000000       2.73625459 </v>
    <v>       2.73625459       2.73625459       0.00000000 </v>
   </varray>
   <i name="volume">     40.97316414 </i>
   <varray name="rec_basis" >
    <v>      -0.18273153       0.18273153       0.18273153 </v>
    <v>       0.18273153      -0.18273153       0.18273153 </v>
    <v>       0.18273153       0.18273153      -0.18273153 </v>
   </varray>
  </crystal>
  <varray name="positions" >
   <v>       0.50000000       0.50000000       0.50000000 </v>
   <v>       0.75000000       0.75000000       0.75000000 </v>
  </varray>
 </structure>
</modeling>
