   2   2   0   0
  0.2001288E+02  0.3839590E-09  0.3839590E-09  0.3839590E-09  0.5000000E-15
  1.000000000000000E-004
  CAR 
 unknown system                          
     16.52218329     -8.11721976  301      6.11359574      1.00000000
     -8.117  0.0000E+00  0.0000E+00
     -8.035  0.0000E+00  0.0000E+00
     -7.953  0.0000E+00  0.0000E+00
     -7.871  0.0000E+00  0.0000E+00
     -7.789  0.0000E+00  0.0000E+00
     -7.707  0.0000E+00  0.0000E+00
     -7.624  0.0000E+00  0.0000E+00
     -7.542  0.0000E+00  0.0000E+00
     -7.460  0.0000E+00  0.0000E+00
     -7.378  0.0000E+00  0.0000E+00
     -7.296  0.7209E-18  0.5921E-19
     -7.214  0.5695E-16  0.4737E-17
     -7.132  0.4705E-14  0.3912E-15
     -7.050  0.2764E-12  0.2310E-13
     -6.967  0.1165E-10  0.9801E-12
     -6.885  0.3524E-09  0.2992E-10
     -6.803  0.7651E-08  0.6583E-09
     -6.721  0.1193E-06  0.1046E-07
     -6.639  0.1337E-05  0.1203E-06
     -6.557  0.1078E-04  0.1005E-05
     -6.475  0.6246E-04  0.6135E-05
     -6.392  0.2605E-03  0.2753E-04
     -6.310  0.7823E-03  0.9179E-04
     -6.228  0.1692E-02  0.2308E-03
     -6.146  0.2640E-02  0.4476E-03
     -6.064  0.3004E-02  0.6943E-03
     -5.982  0.2695E-02  0.9157E-03
     -5.900  0.2813E-02  0.1147E-02
     -5.818  0.5387E-02  0.1589E-02
     -5.735  0.1208E-01  0.2581E-02
     -5.653  0.2201E-01  0.4389E-02
     -5.571  0.3098E-01  0.6933E-02
     -5.489  0.3447E-01  0.9764E-02
     -5.407  0.3109E-01  0.1232E-01
     -5.325  0.2283E-01  0.1419E-01
     -5.243  0.1340E-01  0.1529E-01
     -5.160  0.6379E-02  0.1582E-01
     -5.078  0.3778E-02  0.1613E-01
     -4.996  0.6554E-02  0.1667E-01
     -4.914  0.1519E-01  0.1791E-01
     -4.832  0.2716E-01  0.2014E-01
     -4.750  0.3526E-01  0.2304E-01
     -4.668  0.3366E-01  0.2581E-01
     -4.586  0.2636E-01  0.2797E-01
     -4.503  0.2582E-01  0.3009E-01
     -4.421  0.4197E-01  0.3354E-01
     -4.339  0.7072E-01  0.3935E-01
     -4.257  0.9234E-01  0.4693E-01
     -4.175  0.8819E-01  0.5417E-01
     -4.093  0.6112E-01  0.5919E-01
     -4.011  0.3072E-01  0.6172E-01
     -3.929  0.1122E-01  0.6264E-01
     -3.846  0.3204E-02  0.6290E-01
     -3.764  0.2067E-02  0.6307E-01
     -3.682  0.6625E-02  0.6362E-01
     -3.600  0.2057E-01  0.6531E-01
     -3.518  0.4651E-01  0.6913E-01
     -3.436  0.7590E-01  0.7536E-01
     -3.354  0.8975E-01  0.8273E-01
     -3.271  0.7894E-01  0.8921E-01
     -3.189  0.5841E-01  0.9401E-01
     -3.107  0.5106E-01  0.9821E-01
     -3.025  0.6135E-01  0.1032E+00
     -2.943  0.7190E-01  0.1091E+00
     -2.861  0.6529E-01  0.1145E+00
     -2.779  0.4330E-01  0.1181E+00
     -2.697  0.2076E-01  0.1198E+00
     -2.614  0.7365E-02  0.1204E+00
     -2.532  0.2901E-02  0.1206E+00
     -2.450  0.4619E-02  0.1210E+00
     -2.368  0.1189E-01  0.1220E+00
     -2.286  0.2353E-01  0.1239E+00
     -2.204  0.3363E-01  0.1267E+00
     -2.122  0.3465E-01  0.1295E+00
     -2.040  0.2581E-01  0.1316E+00
     -1.957  0.1437E-01  0.1328E+00
     -1.875  0.8031E-02  0.1335E+00
     -1.793  0.9983E-02  0.1343E+00
     -1.711  0.1934E-01  0.1359E+00
     -1.629  0.3072E-01  0.1384E+00
     -1.547  0.3560E-01  0.1413E+00
     -1.465  0.2976E-01  0.1438E+00
     -1.382  0.1795E-01  0.1452E+00
     -1.300  0.8007E-02  0.1459E+00
     -1.218  0.3842E-02  0.1462E+00
     -1.136  0.6729E-02  0.1468E+00
     -1.054  0.1991E-01  0.1484E+00
     -0.972  0.4721E-01  0.1523E+00
     -0.890  0.8479E-01  0.1592E+00
     -0.808  0.1171E+00  0.1689E+00
     -0.725  0.1267E+00  0.1793E+00
     -0.643  0.1101E+00  0.1883E+00
     -0.561  0.8179E-01  0.1950E+00
     -0.479  0.5989E-01  0.2000E+00
     -0.397  0.4934E-01  0.2040E+00
     -0.315  0.4186E-01  0.2074E+00
     -0.233  0.3061E-01  0.2100E+00
     -0.150  0.1749E-01  0.2114E+00
     -0.068  0.7548E-02  0.2120E+00
      0.014  0.2451E-02  0.2122E+00
      0.096  0.8117E-03  0.2123E+00
      0.178  0.1497E-02  0.2124E+00
      0.260  0.5926E-02  0.2129E+00
      0.342  0.1802E-01  0.2144E+00
      0.424  0.3952E-01  0.2176E+00
      0.507  0.6245E-01  0.2227E+00
      0.589  0.7109E-01  0.2286E+00
      0.671  0.5830E-01  0.2334E+00
      0.753  0.3444E-01  0.2362E+00
      0.835  0.1466E-01  0.2374E+00
      0.917  0.4579E-02  0.2378E+00
      0.999  0.1540E-02  0.2379E+00
      1.081  0.2597E-02  0.2381E+00
      1.164  0.7820E-02  0.2388E+00
      1.246  0.1798E-01  0.2402E+00
      1.328  0.2992E-01  0.2427E+00
      1.410  0.3639E-01  0.2457E+00
      1.492  0.3442E-01  0.2485E+00
      1.574  0.3230E-01  0.2512E+00
      1.656  0.4314E-01  0.2547E+00
      1.739  0.6961E-01  0.2604E+00
      1.821  0.9630E-01  0.2683E+00
      1.903  0.1014E+00  0.2767E+00
      1.985  0.7946E-01  0.2832E+00
      2.067  0.4735E-01  0.2871E+00
      2.149  0.2669E-01  0.2893E+00
      2.231  0.2748E-01  0.2915E+00
      2.313  0.4577E-01  0.2953E+00
      2.396  0.6634E-01  0.3007E+00
      2.478  0.7237E-01  0.3067E+00
      2.560  0.6348E-01  0.3119E+00
      2.642  0.5993E-01  0.3168E+00
      2.724  0.8020E-01  0.3234E+00
      2.806  0.1160E+00  0.3329E+00
      2.888  0.1384E+00  0.3443E+00
      2.971  0.1347E+00  0.3554E+00
      3.053  0.1271E+00  0.3658E+00
      3.135  0.1390E+00  0.3772E+00
      3.217  0.1577E+00  0.3902E+00
      3.299  0.1509E+00  0.4025E+00
      3.381  0.1104E+00  0.4116E+00
      3.463  0.6069E-01  0.4166E+00
      3.545  0.2782E-01  0.4189E+00
      3.628  0.2030E-01  0.4206E+00
      3.710  0.3405E-01  0.4234E+00
      3.792  0.5852E-01  0.4282E+00
      3.874  0.7887E-01  0.4346E+00
      3.956  0.8706E-01  0.4418E+00
      4.038  0.8910E-01  0.4491E+00
      4.120  0.9165E-01  0.4566E+00
      4.202  0.9044E-01  0.4641E+00
      4.285  0.8049E-01  0.4707E+00
      4.367  0.6479E-01  0.4760E+00
      4.449  0.4922E-01  0.4800E+00
      4.531  0.3963E-01  0.4833E+00
      4.613  0.4060E-01  0.4866E+00
      4.695  0.4895E-01  0.4906E+00
      4.777  0.5476E-01  0.4951E+00
      4.860  0.5381E-01  0.4996E+00
      4.942  0.5109E-01  0.5038E+00
      5.024  0.5077E-01  0.5079E+00
      5.106  0.5243E-01  0.5122E+00
      5.188  0.5521E-01  0.5168E+00
      5.270  0.5600E-01  0.5214E+00
      5.352  0.4878E-01  0.5254E+00
      5.434  0.3319E-01  0.5281E+00
      5.517  0.1703E-01  0.5295E+00
      5.599  0.7302E-02  0.5301E+00
      5.681  0.4758E-02  0.5305E+00
      5.763  0.6389E-02  0.5310E+00
      5.845  0.8552E-02  0.5317E+00
      5.927  0.8601E-02  0.5324E+00
      6.009  0.6356E-02  0.5329E+00
      6.092  0.3896E-02  0.5333E+00
      6.174  0.3591E-02  0.5336E+00
      6.256  0.6672E-02  0.5341E+00
      6.338  0.1233E-01  0.5351E+00
      6.420  0.1717E-01  0.5365E+00
      6.502  0.1774E-01  0.5380E+00
      6.584  0.1507E-01  0.5392E+00
      6.666  0.1486E-01  0.5404E+00
      6.749  0.2144E-01  0.5422E+00
      6.831  0.3197E-01  0.5448E+00
      6.913  0.3861E-01  0.5480E+00
      6.995  0.3781E-01  0.5511E+00
      7.077  0.3441E-01  0.5539E+00
      7.159  0.3431E-01  0.5568E+00
      7.241  0.3817E-01  0.5599E+00
      7.323  0.4485E-01  0.5636E+00
      7.406  0.5582E-01  0.5682E+00
      7.488  0.7225E-01  0.5741E+00
      7.570  0.8901E-01  0.5814E+00
      7.652  0.9697E-01  0.5894E+00
      7.734  0.9509E-01  0.5972E+00
      7.816  0.9284E-01  0.6048E+00
      7.898  0.9421E-01  0.6125E+00
      7.981  0.9021E-01  0.6199E+00
      8.063  0.7377E-01  0.6260E+00
      8.145  0.5014E-01  0.6301E+00
      8.227  0.2947E-01  0.6325E+00
      8.309  0.1737E-01  0.6340E+00
      8.391  0.1308E-01  0.6350E+00
      8.473  0.1340E-01  0.6361E+00
      8.555  0.1747E-01  0.6376E+00
      8.638  0.2621E-01  0.6397E+00
      8.720  0.3729E-01  0.6428E+00
      8.802  0.4583E-01  0.6466E+00
      8.884  0.5207E-01  0.6508E+00
      8.966  0.6378E-01  0.6561E+00
      9.048  0.8986E-01  0.6635E+00
      9.130  0.1310E+00  0.6742E+00
      9.212  0.1696E+00  0.6881E+00
      9.295  0.1767E+00  0.7027E+00
      9.377  0.1458E+00  0.7146E+00
      9.459  0.1071E+00  0.7234E+00
      9.541  0.9197E-01  0.7310E+00
      9.623  0.1004E+00  0.7392E+00
      9.705  0.1144E+00  0.7486E+00
      9.787  0.1248E+00  0.7589E+00
      9.870  0.1310E+00  0.7696E+00
      9.952  0.1290E+00  0.7802E+00
     10.034  0.1185E+00  0.7900E+00
     10.116  0.1110E+00  0.7991E+00
     10.198  0.1169E+00  0.8087E+00
     10.280  0.1311E+00  0.8195E+00
     10.362  0.1420E+00  0.8311E+00
     10.444  0.1465E+00  0.8432E+00
     10.527  0.1513E+00  0.8556E+00
     10.609  0.1633E+00  0.8690E+00
     10.691  0.1768E+00  0.8835E+00
     10.773  0.1731E+00  0.8977E+00
     10.855  0.1403E+00  0.9092E+00
     10.937  0.9031E-01  0.9167E+00
     11.019  0.4994E-01  0.9208E+00
     11.102  0.3676E-01  0.9238E+00
     11.184  0.4864E-01  0.9278E+00
     11.266  0.6791E-01  0.9334E+00
     11.348  0.7538E-01  0.9395E+00
     11.430  0.6739E-01  0.9451E+00
     11.512  0.5545E-01  0.9496E+00
     11.594  0.4754E-01  0.9535E+00
     11.676  0.4120E-01  0.9569E+00
     11.759  0.3453E-01  0.9598E+00
     11.841  0.3021E-01  0.9622E+00
     11.923  0.2784E-01  0.9645E+00
     12.005  0.2311E-01  0.9664E+00
     12.087  0.1505E-01  0.9677E+00
     12.169  0.7251E-02  0.9683E+00
     12.251  0.2535E-02  0.9685E+00
     12.333  0.6395E-03  0.9685E+00
     12.416  0.1162E-03  0.9685E+00
     12.498  0.1518E-04  0.9685E+00
     12.580  0.1427E-05  0.9685E+00
     12.662  0.1109E-06  0.9685E+00
     12.744  0.3034E-06  0.9685E+00
     12.826  0.4408E-05  0.9685E+00
     12.908  0.4675E-04  0.9685E+00
     12.991  0.3568E-03  0.9686E+00
     13.073  0.1963E-02  0.9687E+00
     13.155  0.7806E-02  0.9694E+00
     13.237  0.2260E-01  0.9712E+00
     13.319  0.4840E-01  0.9752E+00
     13.401  0.7918E-01  0.9817E+00
     13.483  0.1048E+00  0.9903E+00
     13.565  0.1199E+00  0.1000E+01
     13.648  0.1222E+00  0.1010E+01
     13.730  0.1088E+00  0.1019E+01
     13.812  0.8505E-01  0.1026E+01
     13.894  0.6341E-01  0.1031E+01
     13.976  0.4894E-01  0.1035E+01
     14.058  0.3735E-01  0.1038E+01
     14.140  0.2824E-01  0.1041E+01
     14.223  0.2776E-01  0.1043E+01
     14.305  0.3825E-01  0.1046E+01
     14.387  0.5283E-01  0.1050E+01
     14.469  0.6092E-01  0.1055E+01
     14.551  0.5650E-01  0.1060E+01
     14.633  0.4152E-01  0.1064E+01
     14.715  0.2366E-01  0.1065E+01
     14.797  0.1021E-01  0.1066E+01
     14.880  0.3271E-02  0.1067E+01
     14.962  0.7678E-03  0.1067E+01
     15.044  0.1310E-03  0.1067E+01
     15.126  0.1616E-04  0.1067E+01
     15.208  0.1437E-05  0.1067E+01
     15.290  0.9199E-07  0.1067E+01
     15.372  0.4233E-08  0.1067E+01
     15.454  0.1399E-09  0.1067E+01
     15.537  0.3318E-11  0.1067E+01
     15.619  0.5646E-13  0.1067E+01
     15.701  0.6921E-15  0.1067E+01
     15.783  0.0000E+00  0.1067E+01
     15.865  0.0000E+00  0.1067E+01
     15.947  0.0000E+00  0.1067E+01
     16.029  0.0000E+00  0.1067E+01
     16.112  0.0000E+00  0.1067E+01
     16.194  0.0000E+00  0.1067E+01
     16.276  0.0000E+00  0.1067E+01
     16.358  0.0000E+00  0.1067E+01
     16.440  0.0000E+00  0.1067E+01
     16.522  0.0000E+00  0.1067E+01
