    2    2   15    1
  0.2001288E+02  0.3839590E-09  0.3839590E-09  0.3839590E-09  0.5000000E-15
  1.000000000000000E-004
  CAR 
 unknown system                          
      8      2      8
 
  0.2500000E+00  0.2500000E+00  0.2500000E+00  0.2500000E+00
    1       -5.301795   1.000000
    2        1.938319   1.000000
    3        5.110488   1.000000
    4        5.110488   1.000000
    5        7.902896   0.000000
    6        9.376911   0.000000
    7        9.376911   0.000000
    8       12.799548   0.000000
 
 -0.2500000E+00  0.2500000E+00  0.2500000E+00  0.7500000E+00
    1       -3.380810   1.000000
    2       -0.518723   1.000000
    3        2.326110   1.000000
    4        3.658295   1.000000
    5        7.389443   0.000000
    6       10.327093   0.000000
    7       11.626931   0.000000
    8       11.802895   0.000000
