unknown system                          
   1.00000000000000     
    -2.319413    2.319413    1.393984
     2.319413   -2.319413    1.393984
     2.319413    2.319413   -1.393984
   Si
     2
Direct
  0.250000  0.750000  0.500000
  0.000000  0.000000  0.000000
 
   24   24   24
 -5.5578     -3.5425      1.4704      7.0423      10.819      11.795      10.568      8.5614      6.6897      5.2311    
  4.2485      3.6994      3.5246      3.6994      4.2485      5.2310      6.6898      8.5614      10.568      11.795    
  10.819      7.0423      1.4703     -3.5428     -3.5428     -4.5926     -1.8224      3.3379      8.4038      11.333    
  11.566      9.9907      7.9886      6.2252      4.9033      4.0482      3.6062      3.5246      3.7909      4.4410    
  5.5357      7.1020      9.0388      10.992      11.879      10.387      6.2450     0.78969      1.4703     -1.8226    
 -1.9246      1.2076      5.9238      9.9403      11.706      11.131      9.3014      7.3642      5.7444      4.5769    
  3.8540      3.5177      3.5245      3.8743      4.6109      5.7922      7.4271      9.3818      11.246      11.896    
  10.220      6.2450      7.0423      3.3378      1.2074      1.8305      4.8496      8.6091      11.234      11.752    
  10.488      8.5564      6.7332      5.2811      4.2735      3.6786      3.4396      3.5243      3.9434      4.7442    
  5.9781      7.6354      9.5612      11.330      11.896      10.387      10.819      8.4038      5.9238      4.8496    
  5.8499      8.3233      10.811      11.975      11.404      9.7053      7.8072      6.1378      4.8644      4.0110    
  3.5320      3.3767      3.5241      3.9927      4.8294      6.0757      7.7071      9.5612      11.246      11.879    
  11.795      11.333      9.9403      8.6091      8.3233      9.3398      10.988      12.152      12.053      10.733    
  8.8947      7.1062      5.6155      4.5178      3.8032      3.4220      3.3326      3.5240      4.0185      4.8587    
  6.0757      7.6354      9.3818      10.992      10.568      11.566      11.706      11.234      10.811      10.988    
  11.751      12.509      12.549      11.578      9.9263      8.1338      6.5030      5.1969      4.2586      3.6597    
  3.3539      3.3099      3.5239      4.0185      4.8294      5.9781      7.4271      9.0388      8.5614      9.9907    
  11.131      11.752      11.975      12.152      12.509      12.904      12.917      12.208      10.831      9.1581    
  7.4915      6.0399      4.9052      4.0985      3.5865      3.3309      3.3099      3.5240      3.9927      4.7442    
  5.7922      7.1020      6.6898      7.9886      9.3014      10.488      11.404      12.053      12.549      12.917    
  12.993      12.547      11.519      10.100      8.5286      7.0274      5.7490      4.7556      4.0444      3.5865    
  3.3539      3.3326      3.5241      3.9434      4.6109      5.5357      5.2310      6.2252      7.3643      8.5565    
  9.7054      10.733      11.578      12.208      12.547      12.464      11.883      10.857      9.5345      8.1169    
  6.7843      5.6498      4.7556      4.0985      3.6597      3.4220      3.3767      3.5243      3.8743      4.4410    
  4.2485      4.9033      5.7444      6.7332      7.8074      8.8948      9.9263      10.831      11.519      11.883    
  11.826      11.311      10.397      9.2271      7.9738      6.7843      5.7490      4.9052      4.2586      3.8032    
  3.5320      3.4396      3.5245      3.7909      3.6994      4.0482      4.5769      5.2811      6.1378      7.1064    
  8.1339      9.1581      10.100      10.857      11.311      11.365      10.987      10.233      9.2271      8.1169    
  7.0274      6.0399      5.1969      4.5178      4.0110      3.6786      3.5177      3.5246      3.5246      3.6063    
  3.8542      4.2735      4.8644      5.6155      6.5031      7.4916      8.5286      9.5345      10.397      10.987    
  11.198      10.987      10.397      9.5345      8.5286      7.4915      6.5030      5.6155      4.8644      4.2735    
  3.8540      3.6062      3.6994      3.5246      3.5179      3.6788      4.0111      4.5178      5.1969      6.0400    
  7.0275      8.1169      9.2270      10.233      10.987      11.365      11.311      10.857      10.100      9.1581    
  8.1338      7.1062      6.1378      5.2811      4.5769      4.0482      4.2485      3.7909      3.5245      3.4398    
  3.5322      3.8033      4.2585      4.9051      5.7490      6.7844      7.9738      9.2270      10.397      11.311    
  11.826      11.883      11.519      10.831      9.9263      8.8947      7.8072      6.7332      5.7444      4.9033    
  5.2311      4.4411      3.8744      3.5243      3.3768      3.4222      3.6599      4.0985      4.7555      5.6499    
  6.7844      8.1169      9.5345      10.857      11.883      12.464      12.547      12.208      11.578      10.733    
  9.7053      8.5564      7.3642      6.2252      6.6897      5.5358      4.6111      3.9435      3.5242      3.3327    
  3.3541      3.5867      4.0444      4.7555      5.7490      7.0275      8.5286      10.100      11.519      12.547    
  12.993      12.917      12.549      12.053      11.404      10.488      9.3014      7.9886      8.5614      7.1020    
  5.7924      4.7445      3.9929      3.5240      3.3100      3.3311      3.5867      4.0985      4.9051      6.0400    
  7.4916      9.1581      10.831      12.208      12.917      12.904      12.509      12.152      11.975      11.752    
  11.131      9.9907      10.568      9.0388      7.4270      5.9782      4.8297      4.0187      3.5239      3.3100    
  3.3541      3.6599      4.2585      5.1969      6.5031      8.1339      9.9263      11.578      12.549      12.509    
  11.751      10.988      10.811      11.234      11.706      11.566      11.795      10.992      9.3818      7.6353    
  6.0758      4.8590      4.0187      3.5240      3.3327      3.4222      3.8033      4.5178      5.6155      7.1064    
  8.8948      10.733      12.053      12.152      10.988      9.3398      8.3233      8.6091      9.9403      11.333    
  10.819      11.880      11.246      9.5612      7.7071      6.0758      4.8297      3.9929      3.5242      3.3768    
  3.5322      4.0111      4.8644      6.1378      7.8074      9.7054      11.404      11.975      10.811      8.3233    
  5.8499      4.8496      5.9238      8.4038      7.0423      10.387      11.896      11.330      9.5612      7.6353    
  5.9782      4.7445      3.9435      3.5243      3.4398      3.6788      4.2735      5.2811      6.7332      8.5565    
  10.488      11.752      11.234      8.6091      4.8496      1.8305      1.2076      3.3379      1.4704      6.2450    
  10.220      11.896      11.246      9.3818      7.4270      5.7924      4.6111      3.8744      3.5245      3.5179    
  3.8542      4.5769      5.7444      7.3643      9.3014      11.131      11.706      9.9403      5.9238      1.2074    
 -1.9246     -1.8224     -3.5425     0.78985      6.2450      10.387      11.880      10.992      9.0388      7.1020    
  5.5358      4.4411      3.7909      3.5246      3.6063      4.0482      4.9033      6.2252      7.9886      9.9907    
  11.566      11.333      8.4038      3.3378     -1.8226     -4.5926     -3.5421     -2.1027      2.2000      7.2132    
  10.712      11.642      10.459      8.4775      6.6063      5.1286      4.1157      3.5295      3.3101      3.4272    
  3.8984      4.7787      6.1168      7.8765      9.8420      11.312      10.957      8.0385      3.2488     -1.3764    
 -2.1029     -3.5421     -1.3762      3.2489      8.0385      10.957      11.312      9.8421      7.8765      6.1169    
  4.7788      3.8985      3.4271      3.3100      3.5295      4.1156      5.1285      6.6062      8.4774      10.458    
  11.642      10.712      7.2132      2.1999      2.3592     -1.2020     -1.8221     0.79053      5.2142      9.2375    
  11.207      10.855      9.1421      7.2431      5.6271      4.4465      3.7054      3.3495      3.3326      3.6503    
  4.3428      5.4714      7.0591      9.0014      10.953      11.896      10.648      7.0410      7.6074      3.7041    
  1.1143      1.2079      3.8688      7.5824      10.433      11.274      10.248      8.4098      6.6189      5.1689    
  4.1523      3.5480      3.3010      3.3765      3.7819      4.5641      5.7807      7.4381      9.4052      11.301    
  12.114      10.861      11.321      8.7727      5.9029      4.2987      4.8498      7.1480      9.7794      11.280    
  11.040      9.5227      7.6887      6.0412      4.7687      3.9123      3.4344      3.2846      3.4393      3.9155    
  4.7624      6.0302      7.7089      9.6518      11.482      12.294      12.387      11.883      10.216      8.4167    
  7.6315      8.3233      9.9455      11.345      11.577      10.506      8.7670      7.0204      5.5420      4.4468    
  3.7380      3.3702      3.3010      3.5173      4.0418      4.9218      6.1974      7.8454      9.7159      11.474    
  11.259      12.315      12.336      11.540      10.665      10.431      10.988      11.798      12.061      11.325    
  9.7949      8.0538      6.4455      5.1476      4.2181      3.6367      3.3582      3.3495      3.6058      4.1517    
  5.0289      6.2666      7.8335      9.5882      9.2778      10.833      12.004      12.484      12.400      12.196    
  12.245      12.509      12.572      11.996      10.715      9.0822      7.4402      6.0012      4.8786      4.0925    
  3.6123      3.3985      3.4272      3.6990      4.2369      5.0747      6.2316      7.6736      7.3809      8.8107    
  10.225      11.429      12.219      12.615      12.817      12.952      12.917      12.461      11.447      10.031    
  8.4713      6.9819      5.7187      4.7500      4.0759      3.6657      3.4890      3.5297      3.7908      4.2909    
  5.0554      6.0959      5.8727      6.9824      8.2271      9.4885      10.639      11.567      12.218      12.619    
  12.762      12.546      11.877      10.799      9.4588      8.0425      6.7254      5.6207      4.7706      4.1698    
  3.7947      3.6249      3.6507      3.8745      4.3095      4.9732      4.8358      5.5825      6.5134      7.5756    
  8.6851      9.7481      10.684      11.428      11.922      12.096      11.883      11.262      10.290      9.1011    
  7.8579      6.7018      5.7193      4.9428      4.3716      3.9939      3.7994      3.7824      3.9439      4.2912    
  4.2374      4.6549      5.2503      6.0127      6.9076      7.8780      8.8559      9.7722      10.556      11.128    
  11.403      11.311      10.836      10.036      9.0285      7.9523      6.9234      6.0150      5.2613      4.6737    
  4.2544      4.0026      3.9161      3.9935      4.0193      4.1524      4.4453      4.9021      5.5179      6.2723    
  7.1295      8.0431      8.9569      9.7999      10.482      10.905      10.987      10.704      10.099      9.2682    
  8.3289      7.3810      6.4943      5.7123      5.0625      4.5629      4.2226      4.0425      4.1523      4.0193    
  4.0426      4.2227      4.5630      5.0625      5.7123      6.4944      7.3811      8.3289      9.2682      10.099    
  10.704      10.987      10.905      10.482      9.7999      8.9569      8.0430      7.1294      6.2722      5.5179    
  4.9021      4.4452      4.6549      4.2373      3.9935      3.9162      4.0027      4.2545      4.6737      5.2613    
  6.0150      6.9235      7.9523      9.0284      10.036      10.836      11.311      11.403      11.128      10.556    
  9.7722      8.8558      7.8778      6.9075      6.0127      5.2503      5.5825      4.8358      4.2912      3.9438    
  3.7825      3.7995      3.9941      4.3716      4.9427      5.7194      6.7019      7.8579      9.1010      10.290    
  11.262      11.883      12.096      11.922      11.428      10.684      9.7481      8.6849      7.5755      6.5134    
  6.9823      5.8727      4.9733      4.3095      3.8745      3.6507      3.6251      3.7949      4.1697      4.7705    
  5.6207      6.7255      8.0425      9.4588      10.799      11.877      12.546      12.761      12.619      12.218    
  11.567      10.639      9.4883      8.2270      8.8107      7.3808      6.0958      5.0555      4.2910      3.7908    
  3.5297      3.4891      3.6659      4.0758      4.7499      5.7187      6.9820      8.4714      10.031      11.447    
  12.461      12.917      12.952      12.816      12.615      12.219      11.429      10.224      10.833      9.2777    
  7.6735      6.2316      5.0749      4.2370      3.6990      3.4272      3.3987      3.6125      4.0924      4.8785    
  6.0013      7.4403      9.0822      10.715      11.996      12.572      12.509      12.244      12.196      12.400    
  12.484      12.003      12.315      11.259      9.5882      7.8334      6.2667      5.0292      4.1519      3.6057    
  3.3495      3.3584      3.6368      4.2180      5.1475      6.4456      8.0538      9.7948      11.325      12.061    
  11.798      10.988      10.431      10.664      11.539      12.336      11.883      12.388      11.474      9.7159    
  7.8453      6.1975      4.9221      4.0420      3.5173      3.3011      3.3704      3.7381      4.4467      5.5420    
  7.0205      8.7671      10.505      11.577      11.345      9.9453      8.3231      7.6313      8.4166      10.216    
  8.7726      11.321      12.294      11.482      9.6518      7.7088      6.0303      4.7627      3.9156      3.4393    
  3.2847      3.4345      3.9124      4.7686      6.0412      7.6888      9.5227      11.040      11.280      9.7792    
  7.1478      4.8496      4.2987      5.9029      3.7041      7.6073      10.861      12.114      11.301      9.4052    
  7.4380      5.7809      4.5643      3.7820      3.3766      3.3011      3.5480      4.1523      5.1688      6.6189    
  8.4098      10.248      11.273      10.433      7.5822      3.8685      1.2077      1.1144     -1.2019      2.3593    
  7.0409      10.648      11.896      10.953      9.0014      7.0591      5.4716      4.3430      3.6503      3.3326    
  3.3495      3.7055      4.4464      5.6270      7.2431      9.1421      10.855      11.207      9.2374      5.2140    
 0.79028     -1.8221      1.4715      2.3601      5.4678      9.1396      11.582      11.925      10.556      8.5864    
  6.7417      5.2719      4.2445      3.6246      3.3539      3.3984      3.7678      4.5089      5.6721      7.2475    
  9.0854      10.770      11.280      9.8075      6.6426      3.2494      2.2006     0.79108      2.2008      5.6435    
  9.2825      11.404      11.387      9.8496      7.9253      6.1995      4.8734      3.9847      3.4887      3.3308    
  3.4887      3.9847      4.8733      6.1995      7.9253      9.8495      11.387      11.404      9.2827      5.6434    
  5.4677      2.3599      1.4715      3.2497      6.6427      9.8074      11.280      10.770      9.0854      7.2475    
  5.6722      4.5090      3.7678      3.3983      3.3539      3.6246      4.2443      5.2718      6.7417      8.5865    
  10.556      11.925      11.582      9.1398      9.5042      6.2071      3.7046      3.3388      5.2147      8.1455    
  10.465      11.089      10.069      8.3150      6.5966      5.1923      4.1996      3.6052      3.3581      3.4220    
  3.7991      4.5317      5.6783      7.2599      9.1811      11.154      12.391      11.899      12.351      10.326    
  7.6919      5.9032      5.9243      7.5826      9.7122      10.974      10.726      9.3091      7.5792      6.0086    
  4.7854      3.9605      3.5046      3.3703      3.5320      4.0024      4.8282      6.0629      7.7115      9.6574    
  11.596      12.770      13.015      12.839      11.391      9.5425      8.4168      8.6092      9.7794      10.927    
  11.130      10.164      8.5538      6.9135      5.5116      4.4697      3.8021      3.4707      3.4346      3.6786    
  4.2224      5.1128      6.3940      8.0558      9.9687      11.839      11.846      13.054      13.205      12.392    
  11.289      10.664      10.811      11.344      11.531      10.873      9.4751      7.8570      6.3496      5.1275    
  4.2580      3.7305      3.5049      3.5483      3.8540      4.4451      5.3636      6.6426      8.2588      10.081    
  9.9775      11.600      12.822      13.282      13.033      12.520      12.196      12.151      12.061      11.492    
  10.308      8.7897      7.2605      5.9169      4.8736      4.1587      3.7483      3.6056      3.7059      4.0482    
  4.6548      5.5602      6.7855      8.2991      8.1718      9.6661      11.113      12.294      12.968      13.128    
  13.005      12.816      12.549      11.996      10.998      9.6530      8.1938      6.8085      5.6414      4.7624    
  4.1761      3.8550      3.7683      3.8990      4.2486      4.8357      5.6856      6.8091      6.7111      7.8888    
  9.1746      10.431      11.507      12.269      12.662      12.757      12.618      12.208      11.447      10.361    
  9.0792      7.7553      6.5423      5.5444      4.8026      4.3114      4.0465      3.9852      4.1162      4.4412    
  4.9732      5.7286      5.6853      6.5014      7.4776      8.5485      9.6141      10.564      11.310      11.798    
  12.006      11.922      11.518      10.799      9.8173      8.6830      7.5346      6.4949      5.6404      4.9976    
  4.5612      4.3150      4.2448      4.3435      4.6112      5.0553      5.0747      5.5599      6.1998      6.9763    
  7.8443      8.7347      9.5691      10.277      10.803      11.101      11.128      10.857      10.290      9.4845    
  8.5404      7.5748      6.6861      5.9346      5.3442      4.9171      4.6482      4.5320      4.5646      4.7447    
  4.8299      5.0291      5.3633      5.8333      6.4287      7.1212      7.8666      8.6120      9.3030      9.8842    
  10.297      10.482      10.397      10.036      9.4413      8.6960      7.8948      7.1184      6.4206      5.8308    
  5.3639      5.0284      4.8282      4.7628      4.9220      4.8591      4.9221      5.1126      5.4327      5.8782    
  6.4346      7.0772      7.7740      8.4847      9.1559      9.7191      10.099      10.233      10.099      9.7191    
  9.1560      8.4847      7.7740      7.0772      6.4346      5.8783      5.4327      5.1125      5.3632      5.0289    
  4.8298      4.7628      4.8282      5.0284      5.3639      5.8308      6.4207      7.1185      7.8948      8.6960    
  9.4413      10.036      10.397      10.482      10.297      9.8843      9.3031      8.6119      7.8665      7.1212    
  6.4288      5.8333      6.1998      5.5597      5.0745      4.7445      4.5645      4.5320      4.6482      4.9171    
  5.3442      5.9347      6.6862      7.5748      8.5403      9.4845      10.290      10.857      11.128      11.101    
  10.803      10.277      9.5691      8.7346      7.8443      6.9763      7.4775      6.5014      5.6852      5.0552    
  4.6110      4.3433      4.2449      4.3151      4.5612      4.9975      5.6404      6.4950      7.5345      8.6829    
  9.8173      10.799      11.518      11.922      12.006      11.798      11.310      10.564      9.6140      8.5485    
  9.1745      7.8887      6.7110      5.7285      4.9731      4.4410      4.1161      3.9853      4.0466      4.3113    
  4.8024      5.5444      6.5424      7.7553      9.0791      10.361      11.447      12.208      12.618      12.757    
  12.662      12.269      11.507      10.431      11.113      9.6660      8.1716      6.8089      5.6856      4.8357    
  4.2484      3.8988      3.7684      3.8551      4.1760      4.7622      5.6414      6.8085      8.1938      9.6529    
  10.998      11.996      12.548      12.816      13.005      13.127      12.967      12.294      12.822      11.600    
  9.9774      8.2989      6.7854      5.5603      4.6548      4.0480      3.7058      3.6057      3.7484      4.1585    
  4.8734      5.9170      7.2606      8.7896      10.308      11.492      12.061      12.151      12.196      12.520    
  13.033      13.281      13.205      13.054      11.847      10.081      8.2585      6.6426      5.3638      4.4452    
  3.8539      3.5482      3.5050      3.7305      4.2578      5.1274      6.3497      7.8571      9.4750      10.873    
  11.531      11.344      10.811      10.664      11.289      12.392      11.391      12.839      13.015      11.839    
  9.9686      8.0556      6.3940      5.1130      4.2225      3.6785      3.4346      3.4708      3.8021      4.4695    
  5.5115      6.9136      8.5538      10.164      11.130      10.927      9.7790      8.6089      8.4166      9.5424    
  7.6919      10.325      12.350      12.770      11.596      9.6574      7.7114      6.0629      4.8284      4.0024    
  3.5319      3.3703      3.5047      3.9604      4.7852      6.0085      7.5793      9.3090      10.725      10.974    
  9.7120      7.5823      5.9241      5.9032      3.7047      6.2072      9.5039      11.899      12.391      11.154    
  9.1810      7.2598      5.6785      4.5319      3.7991      3.4219      3.3582      3.6052      4.1995      5.1922    
  6.5966      8.3150      10.069      11.088      10.465      8.1454      5.2144      3.3387      7.0432      7.6079    
  9.5039      11.629      12.762      12.355      10.781      8.8747      7.1038      5.6753      4.6483      3.9939    
  3.6598      3.6125      3.8549      4.4235      5.3647      6.6871      8.3007      9.9745      11.157      11.121    
  9.8076      8.0390      7.2138      6.2461      7.0417      9.1396      11.275      12.238      11.631      9.9852    
  8.1364      6.4832      5.1981      4.3150      3.7947      3.5867      3.6658      4.0463      4.7732      5.8917    
  7.3909      9.1388      10.825      11.714      11.139      9.2826      9.1397      7.0415      6.2461      7.2140    
  9.2826      11.139      11.714      10.826      9.1389      7.3908      5.8917      4.7734      4.0463      3.6658    
  3.5867      3.7948      4.3149      5.1979      6.4833      8.1366      9.9851      11.631      12.238      11.275    
  11.629      9.5039      7.6077      7.0432      8.0392      9.8076      11.121      11.157      9.9746      8.3008    
  6.6871      5.3648      4.4237      3.8548      3.6124      3.6599      3.9940      4.6482      5.6752      7.1039    
  8.8748      10.781      12.355      12.763      13.278      12.198      10.325      8.7728      8.4044      9.2379    
  10.465      11.065      10.525      9.1222      7.5178      6.0635      4.9287      4.1645      3.7482      3.6369    
  3.8035      4.2545      5.0286      6.1754      7.7094      9.5472      11.459      12.954      13.371      13.717    
  12.863      11.390      10.216      9.9405      10.434      10.975      10.833      9.8103      8.3209      6.8258    
  5.5476      4.6009      4.0055      3.7306      3.7383      4.0113      4.5630      5.4331      6.6627      8.2500    
  10.092      11.951      12.202      13.540      13.972      13.429      12.392      11.539      11.234      11.280    
  11.130      10.370      9.0626      7.6053      6.2519      5.1586      4.3929      3.9520      3.8023      3.9128    
  4.2737      4.9022      5.8338      7.0979      8.6761      10.455      10.593      12.176      13.407      13.929    
  13.690      13.033      12.399      11.975      11.576      10.873      9.7330      8.3646      7.0052      5.8186    
  4.9099      4.3111      4.0056      3.9609      4.1528      4.5770      5.2503      6.2002      7.4424      8.9453    
  9.0292      10.490      11.867      12.951      13.519      13.512      13.127      12.615      12.052      11.324    
  10.308      9.0668      7.7666      6.5519      5.5452      4.8113      4.3588      4.1646      4.2001      4.4470    
  4.9034      5.5824      6.5016      7.6638      7.7400      8.9180      10.152      11.302      12.211      12.755    
  12.879      12.662      12.217      11.578      10.714      9.6530      8.4833      7.3176      6.2765      5.4482    
  4.8695      4.5359      4.4237      4.5095      4.7792      5.2311      5.8724      6.7109      6.8085      7.6634    
  8.6230      9.6144      10.534      11.272      11.743      11.914      11.798      11.428      10.830      10.031    
  9.0792      8.0559      7.0660      6.2068      5.5406      5.0876      4.8386      4.7733      4.8737      5.1290    
  5.5358      6.0955      6.2312      6.7847      7.4418      8.1738      8.9294      9.6384      10.227      10.635    
  10.830      10.803      10.556      10.100      9.4587      8.6830      7.8510      7.0523      6.3633      5.8294    
  5.4634      5.2576      5.1979      5.2720      5.4718      5.7924      5.9782      6.2663      6.6418      7.0971    
  7.6142      8.1615      8.6962      9.1726      9.5495      9.7949      9.8844      9.8000      9.5345      9.1011    
  8.5404      7.9169      7.3019      6.7553      6.3126      5.9866      5.7759      5.6749      5.6782      5.7809    
  6.0302      6.0758      6.1972      6.3933      6.6619      6.9950      7.3770      7.7864      8.1983      8.5853    
  8.9165      9.1561      9.2683      9.2271      9.0285      8.6961      8.2754      7.8198      7.3758      6.9753    
  6.6360      6.3672      6.1749      6.0624      6.3933      6.1971      6.0758      6.0301      6.0624      6.1748    
  6.3671      6.6359      6.9754      7.3759      7.8198      8.2753      8.6961      9.0286      9.2271      9.2682    
  9.1561      8.9166      8.5854      8.1982      7.7863      7.3771      6.9951      6.6620      7.0971      6.6417    
  6.2662      5.9780      5.7808      5.6782      5.6749      5.7758      5.9865      6.3126      6.7554      7.3019    
  7.9167      8.5404      9.1011      9.5345      9.7999      9.8844      9.7951      9.5497      9.1726      8.6962    
  8.1616      7.6143      8.1738      7.4417      6.7846      6.2310      5.7921      5.4716      5.2719      5.1979    
  5.2575      5.4633      5.8294      6.3635      7.0522      7.8508      8.6830      9.4588      10.100      10.556    
  10.803      10.831      10.635      10.227      9.6384      8.9294      9.6144      8.6229      7.6633      6.8084    
  6.0953      5.5354      5.1287      4.8737      4.7734      4.8385      5.0875      5.5406      6.2069      7.0659    
  8.0557      9.0792      10.031      10.830      11.428      11.798      11.914      11.743      11.271      10.534    
  11.302      10.152      8.9179      7.7399      6.7109      5.8722      5.2308      4.7789      4.5095      4.4238    
  4.5358      4.8694      5.4482      6.2766      7.3175      8.4831      9.6530      10.715      11.578      12.217    
  12.662      12.879      12.755      12.211      12.951      11.867      10.490      9.0289      7.6636      6.5015    
  5.5822      4.9031      4.4467      4.2001      4.1646      4.3586      4.8112      5.5452      6.5520      7.7665    
  9.0666      10.308      11.324      12.052      12.614      13.127      13.512      13.519      13.929      13.407    
  12.176      10.593      8.9450      7.4423      6.2002      5.2501      4.5767      4.1526      3.9610      4.0056    
  4.3110      4.9098      5.8187      7.0053      8.3644      9.7328      10.873      11.576      11.975      12.399    
  13.033      13.690      13.428      13.972      13.540      12.203      10.455      8.6758      7.0978      5.8339    
  4.9021      4.2734      3.9126      3.8024      3.9520      4.3927      5.1585      6.2520      7.6053      9.0625    
  10.370      11.130      11.280      11.234      11.539      12.392      11.390      12.863      13.717      13.371    
  11.952      10.092      8.2496      6.6627      5.4332      4.5630      4.0110      3.7383      3.7307      4.0055    
  4.6008      5.5476      6.8258      8.3209      9.8102      10.833      10.975      10.433      9.9403      10.216    
  8.7730      10.325      12.197      13.277      12.954      11.459      9.5470      7.7091      6.1754      5.0288    
  4.2544      3.8033      3.6369      3.7483      4.1644      4.9285      6.0635      7.5179      9.1221      10.525    
  11.065      10.465      9.2377      8.4043      10.819      11.321      12.350      13.277      13.421      12.550    
  11.017      9.3047      7.6992      6.3675      5.3641      4.6737      4.2587      4.0928      4.1763      4.5359    
  5.2096      6.2145      7.5050      8.9414      10.294      11.157      11.280      10.958      10.712      10.387    
  10.861      11.898      12.762      12.761      11.747      10.163      8.4854      6.9762      5.7762      4.9173    
  4.3717      4.0988      4.0762      4.3115      4.8387      5.6965      6.8902      8.3437      9.8732      11.163    
  11.714      11.403      11.582      10.648      10.220      10.648      11.582      12.238      11.995      10.831    
  9.2486      7.6615      6.2950      5.2578      4.5613      4.1699      4.0448      4.1701      4.5613      5.2577    
  6.2951      7.6617      9.2486      10.831      11.995      12.238      12.762      11.898      10.860      10.387    
  10.712      11.403      11.714      11.163      9.8733      8.3437      6.8901      5.6966      4.8388      4.3114    
  4.0760      4.0989      4.3718      4.9173      5.7761      6.9764      8.4856      10.163      11.747      12.761    
  13.421      13.277      12.350      11.320      10.819      10.958      11.280      11.157      10.294      8.9415    
  7.5050      6.2144      5.2097      4.5360      4.1761      4.0927      4.2589      4.6739      5.3641      6.3675    
  7.6995      9.3050      11.016      12.550      13.163      13.912      13.717      12.839      11.882      11.333    
  11.207      11.089      10.525      9.4222      8.0836      6.7734      5.6640      4.8524      4.3588      4.1587    
  4.2183      4.5180      5.0626      5.8785      6.9955      8.4122      10.052      11.731      12.230      13.514    