unknown system                          
           1
    -2.450000    2.450000    1.274000
     2.450000   -2.450000    1.274000
     2.450000    2.450000   -1.274000
   Si
   2
Direct configuration=     1
   0.25000000  0.75000000  0.50000000
   0.00000000  0.00000000  0.00000000
unknown system                          
           1
    -2.319413    2.319413    1.393984
     2.319413   -2.319413    1.393984
     2.319413    2.319413   -1.393984
   Si
   2
Direct configuration=     2
   0.25000000  0.75000000  0.50000000
  -0.00000000  0.00000000 -0.00000000
unknown system                          
           1
    -2.376272    2.376272    1.341742
     2.376272   -2.376272    1.341742
     2.376272    2.376272   -1.341742
   Si
   2
Direct configuration=     3
   0.25000000  0.75000000  0.50000000
  -0.00000000  0.00000000 -0.00000000
unknown system                          
           1
    -2.375772    2.375772    1.342201
     2.375772   -2.375772    1.342201
     2.375772    2.375772   -1.342201
   Si
   2
Direct configuration=     4
   0.25000000  0.75000000  0.50000000
  -0.00000000  0.00000000 -0.00000000
unknown system                          
           1
    -2.375988    2.375988    1.342003
     2.375988   -2.375988    1.342003
     2.375988    2.375988   -1.342003
   Si
   2
Direct configuration=     5
   0.25000000  0.75000000  0.50000000
  -0.00000000  0.00000000 -0.00000000
unknown system                          
           1
    -2.376130    2.376130    1.341872
     2.376130   -2.376130    1.341872
     2.376130    2.376130   -1.341872
   Si
   2
Direct configuration=     6
   0.25000000  0.75000000  0.50000000
  -0.00000000  0.00000000 -0.00000000
unknown system                          
           1
    -2.376199    2.376199    1.341809
     2.376199   -2.376199    1.341809
     2.376199    2.376199   -1.341809
   Si
   2
Direct configuration=     7
   0.25000000  0.75000000  0.50000000
  -0.00000000  0.00000000 -0.00000000
unknown system                          
           1
    -2.383335    2.383335    1.346872
     2.383335   -2.383335    1.346872
     2.383335    2.383335   -1.346872
   Si
   2
Direct configuration=     8
   0.25000000  0.75000000  0.50000000
  -0.00000000  0.00000000 -0.00000000
unknown system                          
           1
    -2.383123    2.383123    1.346721
     2.383123   -2.383123    1.346721
     2.383123    2.383123   -1.346721
   Si
   2
Direct configuration=     9
   0.25000000  0.75000000  0.50000000
  -0.00000000  0.00000000 -0.00000000
unknown system                          
           1
    -2.381185    2.381185    1.345346
     2.381185   -2.381185    1.345346
     2.381185    2.381185   -1.345346
   Si
   2
Direct configuration=    10
   0.25000000  0.75000000  0.50000000
  -0.00000000  0.00000000 -0.00000000
unknown system                          
           1
    -2.380499    2.380499    1.344860
     2.380499   -2.380499    1.344860
     2.380499    2.380499   -1.344860
   Si
   2
Direct configuration=    11
   0.25000000  0.75000000  0.50000000
  -0.00000000  0.00000000 -0.00000000
unknown system                          
           1
    -2.380828    2.380828    1.345094
     2.380828   -2.380828    1.345094
     2.380828    2.380828   -1.345094
   Si
   2
Direct configuration=    12
   0.25000000  0.75000000  0.50000000
  -0.00000000  0.00000000 -0.00000000
unknown system                          
           1
    -2.381007    2.381007    1.345220
     2.381007   -2.381007    1.345220
     2.381007    2.381007   -1.345220
   Si
   2
Direct configuration=    13
   0.25000000  0.75000000  0.50000000
  -0.00000000  0.00000000 -0.00000000
unknown system                          
           1
    -2.381096    2.381096    1.345283
     2.381096   -2.381096    1.345283
     2.381096    2.381096   -1.345283
   Si
   2
Direct configuration=    14
   0.25000000  0.75000000  0.50000000
  -0.00000000  0.00000000 -0.00000000
unknown system                          
           1
    -2.381140    2.381140    1.345315
     2.381140   -2.381140    1.345315
     2.381140    2.381140   -1.345315
   Si
   2
Direct configuration=    15
   0.25000000  0.75000000  0.50000000
  -0.00000000  0.00000000 -0.00000000
