unknown system                          
   1.00000000000000     
    -2.415541    2.415541    1.323059
     2.415541   -2.415541    1.323059
     2.415541    2.415541   -1.323059
   Si
     2
Direct
  0.250000  0.750000  0.500000
 -0.000000  0.000000 -0.000000
 
   24   24   24
 -.55976450322E+01 -.35840033655E+01 0.14489107828E+01 0.70996110084E+01 0.11001815728E+02
 0.12087402495E+02 0.10897529589E+02 0.88638371168E+01 0.69561244821E+01 0.54648454293E+01
 0.44585235528E+01 0.38958749349E+01 0.37168698780E+01 0.38959431180E+01 0.44585266000E+01
 0.54647970453E+01 0.69561492870E+01 0.88638867734E+01 0.10897468615E+02 0.12087322038E+02
 0.11001899086E+02 0.70997497985E+01 0.14488511987E+01 -.35841864804E+01 -.35841864804E+01
 -.45400710045E+01 -.17036449238E+01 0.34868450326E+01 0.85796208631E+01 0.11548073023E+02
 0.11810275433E+02 0.10233282903E+02 0.82102660739E+01 0.64276560117E+01 0.50919360649E+01
 0.42303370310E+01 0.37897094982E+01 0.37168761549E+01 0.40004336645E+01 0.46781487986E+01
 0.58120145953E+01 0.74256510335E+01 0.94085423964E+01 0.11379063422E+02 0.12182129053E+02
 0.10518086965E+02 0.62130902158E+01 0.69676316578E+00 0.14488511987E+01 -.17038035378E+01
 -.16505455863E+01 0.15494797436E+01 0.62343030130E+01 0.10178052330E+02 0.11884548733E+02
 0.11279851765E+02 0.94383164500E+01 0.74992945761E+01 0.58823498755E+01 0.47218582256E+01
 0.40100950963E+01 0.36891943238E+01 0.37168162287E+01 0.40956433982E+01 0.48721068868E+01
 0.61045580140E+01 0.77956907359E+01 0.97994757240E+01 0.11663819350E+02 0.12194668061E+02
 0.10326949612E+02 0.62130902158E+01 0.70997497985E+01 0.34868004674E+01 0.15493656171E+01
 0.23193527678E+01 0.53363048328E+01 0.89607774014E+01 0.11414758780E+02 0.11811471202E+02
 0.10503157506E+02 0.85826276070E+01 0.67839914722E+01 0.53597177467E+01 0.43798226449E+01
 0.38120286064E+01 0.36008053923E+01 0.37167394170E+01 0.41744412113E+01 0.50242474371E+01
 0.63162735252E+01 0.80326335701E+01 0.10003719252E+02 0.11757194075E+02 0.12194668061E+02
 0.10518086965E+02 0.11001899086E+02 0.85797240503E+01 0.62342799380E+01 0.53362467471E+01
 0.64044925647E+01 0.87674735058E+01 0.11027303274E+02 0.11971914308E+02 0.11282416003E+02
 0.95800684443E+01 0.77285216123E+01 0.61139132923E+01 0.48930939575E+01 0.40860013792E+01
 0.36475243014E+01 0.35299174773E+01 0.37166539279E+01 0.42306770982E+01 0.51213307867E+01
 0.64274627706E+01 0.81142327215E+01 0.10003719252E+02 0.11663819350E+02 0.12182129053E+02
 0.12087322038E+02 0.11548118779E+02 0.10178109736E+02 0.89607776747E+01 0.87674728799E+01
 0.97360608614E+01 0.11179067642E+02 0.12079437355E+02 0.11789160692E+02 0.10420161340E+02
 0.86415420737E+01 0.69371434848E+01 0.55312480798E+01 0.45081372529E+01 0.38551052085E+01
 0.35247971476E+01 0.34804653523E+01 0.37165744074E+01 0.42599706483E+01 0.51547164329E+01
 0.64274627706E+01 0.80326335701E+01 0.97994757240E+01 0.11379063422E+02 0.10897468615E+02
 0.11810223191E+02 0.11884552262E+02 0.11414768288E+02 0.11027324143E+02 0.11179115968E+02
 0.11790074908E+02 0.12304249278E+02 0.12122012264E+02 0.11056489015E+02 0.94569822836E+01
 0.77735217063E+01 0.62635243321E+01 0.50687237606E+01 0.42226111277E+01 0.36966720426E+01
 0.34491943162E+01 0.34551090251E+01 0.37165615316E+01 0.42599706483E+01 0.51213307867E+01
 0.63162735252E+01 0.77956907359E+01 0.94085423964E+01 0.88638867734E+01 0.10233274498E+02
 0.11279829388E+02 0.11811436793E+02 0.11971881543E+02 0.12079471735E+02 0.12304330614E+02
 0.12492742850E+02 0.12291518578E+02 0.11462688800E+02 0.10116952484E+02 0.85652093812E+01
 0.70510875467E+01 0.57517680761E+01 0.47490378318E+01 0.40474935945E+01 0.36162491148E+01
 0.34236995815E+01 0.34551090251E+01 0.37165744074E+01 0.42306770982E+01 0.50242474371E+01
 0.61045580140E+01 0.74256510335E+01 0.69561492870E+01 0.82103071551E+01 0.94383546251E+01
 0.10503163018E+02 0.11282355041E+02 0.11789096962E+02 0.12122050942E+02 0.12291614122E+02
 0.12164394124E+02 0.11585354094E+02 0.10560746506E+02 0.92510126716E+01 0.78478645390E+01
 0.65350712376E+01 0.54328371757E+01 0.45860283438E+01 0.39885545721E+01 0.36162491148E+01
 0.34491943162E+01 0.34804653523E+01 0.37166539279E+01 0.41744412113E+01 0.48721068868E+01
 0.58120145953E+01 0.54647970453E+01 0.64276330320E+01 0.74993220176E+01 0.85826974015E+01
 0.95800972525E+01 0.10420090161E+02 0.11056408867E+02 0.11462722906E+02 0.11585446923E+02
 0.11347152246E+02 0.10721660521E+02 0.97619222342E+01 0.85958031791E+01 0.73846622431E+01
 0.62668434900E+01 0.53246215122E+01 0.45860283438E+01 0.40474935945E+01 0.36966720426E+01
 0.35247971476E+01 0.35299174773E+01 0.37167394170E+01 0.40956433982E+01 0.46781487986E+01
 0.44585266000E+01 0.50918846893E+01 0.58822899490E+01 0.67839995050E+01 0.77286043248E+01
 0.86415895743E+01 0.94569177937E+01 0.10116869222E+02 0.10560769581E+02 0.10721739905E+02
 0.10545998456E+02 0.10026064647E+02 0.92210718353E+01 0.82444003437E+01 0.72248061008E+01
 0.62668434900E+01 0.54328371757E+01 0.47490378318E+01 0.42226111277E+01 0.38551052085E+01
 0.36475243014E+01 0.36008053923E+01 0.37168162287E+01 0.40004336645E+01 0.38959431180E+01
 0.42303724457E+01 0.47218154141E+01 0.53596369307E+01 0.61138981802E+01 0.69372216840E+01
 0.77735831440E+01 0.85651636250E+01 0.92509353404E+01 0.97619324197E+01 0.10026128342E+02
 0.99893503302E+01 0.96418585003E+01 0.90304033154E+01 0.82444003437E+01 0.73846622431E+01
 0.65350712376E+01 0.57517680761E+01 0.50687237606E+01 0.45081372529E+01 0.40860013792E+01
 0.38120286064E+01 0.36891943238E+01 0.37168761549E+01 0.37168698780E+01 0.37897721305E+01
 0.40101533892E+01 0.43798020793E+01 0.48930092262E+01 0.55312079286E+01 0.62635853063E+01
 0.70511588081E+01 0.78478421427E+01 0.85957350287E+01 0.92210718718E+01 0.96419119539E+01
 0.97909358036E+01 0.96418585003E+01 0.92210718353E+01 0.85958031791E+01 0.78478645390E+01
 0.70510875467E+01 0.62635243321E+01 0.55312480798E+01 0.48930939575E+01 0.43798226449E+01
 0.40100950963E+01 0.37897094982E+01 0.38958749349E+01 0.37168444605E+01 0.36892348739E+01
 0.38121015152E+01 0.40860132381E+01 0.45080609286E+01 0.50686600282E+01 0.57518079532E+01
 0.65351491737E+01 0.73846586434E+01 0.82443383987E+01 0.90303994350E+01 0.96419119539E+01
 0.99893503302E+01 0.10026064647E+02 0.97619222342E+01 0.92510126716E+01 0.85652093812E+01
 0.77735217063E+01 0.69371434848E+01 0.61139132923E+01 0.53597177467E+01 0.47218582256E+01
 0.42303370310E+01 0.44585235528E+01 0.40003784510E+01 0.37167553933E+01 0.36008119915E+01
 0.36476048139E+01 0.38551530949E+01 0.42225495105E+01 0.47489561670E+01 0.54328602110E+01
 0.62669245116E+01 0.72248094867E+01 0.82443383987E+01 0.92210718718E+01 0.10026128342E+02
 0.10545998456E+02 0.10721660521E+02 0.10560746506E+02 0.10116952484E+02 0.94569822836E+01
 0.86415420737E+01 0.77285216123E+01 0.67839914722E+01 0.58823498755E+01 0.50919360649E+01
 0.54648454293E+01 0.46781862927E+01 0.40956149455E+01 0.37166529990E+01 0.35298866367E+01
 0.35248816166E+01 0.36967515280E+01 0.40474448975E+01 0.45859365512E+01 0.53246379299E+01
 0.62669245116E+01 0.73846586434E+01 0.85957350287E+01 0.97619324197E+01 0.10721739905E+02
 0.11347152246E+02 0.11585354094E+02 0.11462688800E+02 0.11056489015E+02 0.10420161340E+02
 0.95800684443E+01 0.85826276070E+01 0.74992945761E+01 0.64276560117E+01 0.69561244821E+01
 0.58120516915E+01 0.48721873993E+01 0.41744454227E+01 0.37165482116E+01 0.34804034822E+01
 0.34492805238E+01 0.36163465394E+01 0.39885106463E+01 0.45859365512E+01 0.54328602110E+01
 0.65351491737E+01 0.78478421427E+01 0.92509353404E+01 0.10560769581E+02 0.11585446923E+02
 0.12164394124E+02 0.12291518578E+02 0.12122012264E+02 0.11789160692E+02 0.11282416003E+02
 0.10503157506E+02 0.94383164500E+01 0.82102660739E+01 0.88638371168E+01 0.74255747091E+01
 0.61045806630E+01 0.50243673207E+01 0.42307109917E+01 0.37164565980E+01 0.34550291030E+01
 0.34237859416E+01 0.36163465394E+01 0.40474448975E+01 0.47489561670E+01 0.57518079532E+01
 0.70511588081E+01 0.85651636250E+01 0.10116869222E+02 0.11462722906E+02 0.12291614122E+02
 0.12492742850E+02 0.12304249278E+02 0.12079437355E+02 0.11971914308E+02 0.11811471202E+02
 0.11279851765E+02 0.10233282903E+02 0.10897529589E+02 0.94084881692E+01 0.77955691922E+01
 0.63162840610E+01 0.51214783345E+01 0.42600215418E+01 0.37164392628E+01 0.34550291030E+01
 0.34492805238E+01 0.36967515280E+01 0.42225495105E+01 0.50686600282E+01 0.62635853063E+01
 0.77735831440E+01 0.94569177937E+01 0.11056408867E+02 0.12122050942E+02 0.12304330614E+02
 0.11790074908E+02 0.11179067642E+02 0.11027303274E+02 0.11414758780E+02 0.11884548733E+02
 0.11810275433E+02 0.12087402495E+02 0.11379173094E+02 0.97994200282E+01 0.80324810775E+01
 0.64274660083E+01 0.51548736225E+01 0.42600215418E+01 0.37164565980E+01 0.34804034822E+01
 0.35248816166E+01 0.38551530949E+01 0.45080609286E+01 0.55312079286E+01 0.69372216840E+01
 0.86415895743E+01 0.10420090161E+02 0.11789096962E+02 0.12079471735E+02 0.11179115968E+02
 0.97360608614E+01 0.87674735058E+01 0.89607774014E+01 0.10178052330E+02 0.11548073023E+02
 0.11001815728E+02 0.12182232113E+02 0.11663963273E+02 0.10003662934E+02 0.81140689428E+01
 0.64274660083E+01 0.51214783345E+01 0.42307109917E+01 0.37165482116E+01 0.35298866367E+01
 0.36476048139E+01 0.40860132381E+01 0.48930092262E+01 0.61138981802E+01 0.77286043248E+01
 0.95800972525E+01 0.11282355041E+02 0.11971881543E+02 0.11027324143E+02 0.87674728799E+01
 0.64044925647E+01 0.53363048328E+01 0.62343030130E+01 0.85796208631E+01 0.70996110084E+01
 0.10517977777E+02 0.12194783403E+02 0.11757350082E+02 0.10003662934E+02 0.80324810775E+01
 0.63162840610E+01 0.50243673207E+01 0.41744454227E+01 0.37166529990E+01 0.36008119915E+01
 0.38121015152E+01 0.43798020793E+01 0.53596369307E+01 0.67839995050E+01 0.85826974015E+01
 0.10503163018E+02 0.11811436793E+02 0.11414768288E+02 0.89607776747E+01 0.53362467471E+01
 0.23193527678E+01 0.15494797436E+01 0.34868450326E+01 0.14489107828E+01 0.62129317752E+01
 0.10326831075E+02 0.12194783403E+02 0.11663963273E+02 0.97994200282E+01 0.77955691922E+01
 0.61045806630E+01 0.48721873993E+01 0.40956149455E+01 0.37167553933E+01 0.36892348739E+01
 0.40101533892E+01 0.47218154141E+01 0.58822899490E+01 0.74993220176E+01 0.94383546251E+01
 0.11279829388E+02 0.11884552262E+02 0.10178109736E+02 0.62342799380E+01 0.15493656171E+01
 -.16505455863E+01 -.17036449238E+01 -.35840033655E+01 0.69682804499E+00 0.62129317752E+01
 0.10517977777E+02 0.12182232113E+02 0.11379173094E+02 0.94084881692E+01 0.74255747091E+01
 0.58120516915E+01 0.46781862927E+01 0.40003784510E+01 0.37168444605E+01 0.37897721305E+01
 0.42303724457E+01 0.50918846893E+01 0.64276330320E+01 0.82103071551E+01 0.10233274498E+02
 0.11810223191E+02 0.11548118779E+02 0.85797240503E+01 0.34868004674E+01 -.17038035378E+01
 -.45400710045E+01 -.35838139436E+01 -.21839291659E+01 0.21249811011E+01 0.72279891442E+01
 0.10876771169E+02 0.11936290928E+02 0.10796006062E+02 0.87792649633E+01 0.68597120842E+01
 0.53382310692E+01 0.42923959687E+01 0.36853245675E+01 0.34551453888E+01 0.35699781717E+01
 0.40475009977E+01 0.49438178889E+01 0.63082995697E+01 0.81020241309E+01 0.10103008164E+02
 0.11573025903E+02 0.11161695135E+02 0.81587930493E+01 0.32987814383E+01 -.13740866634E+01
 -.21841282647E+01 -.35838465148E+01 -.13739212795E+01 0.32988794604E+01 0.81587037779E+01
 0.11161587135E+02 0.11573033182E+02 0.10103058299E+02 0.81020354088E+01 0.63083005258E+01
 0.49438251031E+01 0.40474821967E+01 0.35699568050E+01 0.34551681315E+01 0.36853463016E+01
 0.42923625863E+01 0.53382107153E+01 0.68597649500E+01 0.87792863237E+01 0.10795910386E+02
 0.11936225838E+02 0.10876891099E+02 0.72281406251E+01 0.21249154298E+01 0.22820543386E+01
 -.12034718517E+01 -.17035197896E+01 0.99018571216E+00 0.54350331098E+01 0.94497172879E+01
 0.11407811313E+02 0.11042917895E+02 0.93070188434E+01 0.73867828959E+01 0.57567064437E+01
 0.45698035611E+01 0.38301594054E+01 0.34823872733E+01 0.34804818429E+01 0.38215713146E+01
 0.45489653439E+01 0.57252421015E+01 0.73698767704E+01 0.93679973630E+01 0.11342944578E+02
 0.12200117434E+02 0.10778182595E+02 0.70106079618E+01 0.76215094648E+01 0.37471274930E+01
 0.13062717646E+01 0.15495124381E+01 0.42585298402E+01 0.79091115352E+01 0.10649682826E+02
 0.11397278480E+02 0.10322248820E+02 0.84708607168E+01 0.66820092815E+01 0.52416577416E+01
 0.42395181278E+01 0.36531616503E+01 0.34277346960E+01 0.35298629759E+01 0.39702108266E+01
 0.47992228859E+01 0.60747290707E+01 0.77964571958E+01 0.98196826947E+01 0.11722129967E+02
 0.12423848707E+02 0.10993982756E+02 0.11494137795E+02 0.88895438708E+01 0.61108452199E+01
 0.46763801929E+01 0.53362807617E+01 0.75940480921E+01 0.10062467869E+02 0.11377962058E+02
 0.11015040416E+02 0.94639472473E+01 0.76479694194E+01 0.60311888971E+01 0.47931623835E+01
 0.39709211164E+01 0.35258711232E+01 0.34091826255E+01 0.36006926449E+01 0.41215397560E+01
 0.50241749329E+01 0.63571011074E+01 0.81009467492E+01 0.10092908514E+02 0.11915191115E+02
 0.12613436420E+02 0.12708190037E+02 0.12096928145E+02 0.10419340956E+02 0.87235721084E+01
 0.80611255075E+01 0.87673880016E+01 0.10248251594E+02 0.11419495236E+02 0.11455581293E+02
 0.10298758060E+02 0.85809481204E+01 0.68882068904E+01 0.54709720696E+01 0.44339141100E+01
 0.37764871510E+01 0.34541440123E+01 0.34277512511E+01 0.36890181141E+01 0.42652147704E+01
 0.52056575946E+01 0.65466517550E+01 0.82534152581E+01 0.10159042916E+02 0.11897741082E+02
 0.11644405436E+02 0.12606552004E+02 0.12543586457E+02 0.11739378969E+02 0.10920827899E+02
 0.10714193102E+02 0.11178947064E+02 0.11782079633E+02 0.11820059992E+02 0.10949496628E+02
 0.94220051852E+01 0.77550393840E+01 0.62382676544E+01 0.50303013624E+01 0.41794613319E+01
 0.36636623683E+01 0.34406857184E+01 0.34824336066E+01 0.37895514775E+01 0.43907544328E+01
 0.53281530236E+01 0.66251544870E+01 0.82373476238E+01 0.10007149905E+02 0.96469180989E+01
 0.11147881356E+02 0.12219308591E+02 0.12606532918E+02 0.12472735332E+02 0.12238836297E+02
 0.12207020347E+02 0.12304141118E+02 0.12156974623E+02 0.11427237855E+02 0.10122589169E+02
 0.85741432639E+01 0.70511376755E+01 0.57383621573E+01 0.47302578053E+01 0.40393824690E+01
 0.36359481743E+01 0.34854106990E+01 0.35700428597E+01 0.38957577073E+01 0.44885411094E+01
 0.53808425769E+01 0.65845989360E+01 0.80525270124E+01 0.77158260704E+01 0.91086636999E+01
 0.10440266771E+02 0.11523498886E+02 0.12184141364E+02 0.12462745276E+02 0.12540571781E+02
 0.12515552753E+02 0.12291411952E+02 0.11680893797E+02 0.10624377527E+02 0.92846848354E+01
 0.78588064899E+01 0.65282921261E+01 0.54199115781E+01 0.45849122511E+01 0.40185673303E+01
 0.36935894563E+01 0.35856926785E+01 0.36854643662E+01 0.40003672142E+01 0.45507184904E+01
 0.53589291074E+01 0.64286183218E+01 0.61722603507E+01 0.72588848836E+01 0.84396099153E+01
 0.95916075670E+01 0.10590832539E+02 0.11342429529E+02 0.11807979937E+02 0.12015431846E+02
 0.11961867004E+02 0.11585300635E+02 0.10849348877E+02 0.98143736849E+01 0.85995130814E+01
 0.73595120618E+01 0.62329041604E+01 0.53044529499E+01 0.46020774597E+01 0.41181256952E+01
 0.38342151097E+01 0.37366637357E+01 0.38217672582E+01 0.40957337838E+01 0.45720791277E+01
 0.52645722350E+01 0.51065390011E+01 0.58396014143E+01 0.67234746375E+01 0.76977462053E+01
 0.86749057572E+01 0.95629157558E+01 0.10288385249E+02 0.10802668546E+02 0.11069408246E+02
 0.11052087264E+02 0.10721630914E+02 0.10082907306E+02 0.91965284429E+01 0.81727950216E+01
 0.71378806381E+01 0.61948647314E+01 0.54033729375E+01 0.47839455234E+01 0.43357538831E+01
 0.40526843362E+01 0.39309459437E+01 0.39704286713E+01 0.41746745220E+01 0.45508553977E+01
 0.44887897284E+01 0.48989686013E+01 0.54603452293E+01 0.61555803920E+01 0.69439903323E+01
 0.77650519248E+01 0.85513568337E+01 0.92410786736E+01 0.97807589268E+01 0.10120327068E+02
 0.10212548551E+02 0.10026073093E+02 0.95661727988E+01 0.88856792223E+01 0.80737601863E+01
 0.72277567458E+01 0.64261669496E+01 0.57176143389E+01 0.51264699286E+01 0.46647854610E+01
 0.43403695709E+01 0.41585689934E+01 0.41218046980E+01 0.42310492196E+01 0.42603808114E+01
 0.43910763653E+01 0.46594674381E+01 0.50655782534E+01 0.55993314107E+01 0.62349435403E+01
 0.69325857602E+01 0.76453767697E+01 0.83247603461E+01 0.89197249079E+01 0.93737642294E+01
 0.96290047626E+01 0.96418910834E+01 0.94026007349E+01 0.89435263218E+01 0.83289911762E+01
 0.76329156116E+01 0.69193766326E+01 0.62359166143E+01 0.56175925236E+01 0.50927616064E+01
 0.46842185695E+01 0.44066295311E+01 0.42654465283E+01 0.43909530487E+01 0.42603699545E+01
 0.42655522234E+01 0.44067166062E+01 0.46841823016E+01 0.50926546096E+01 0.56175519746E+01
 0.62359807010E+01 0.69194389793E+01 0.76328881441E+01 0.83289335528E+01 0.89435389705E+01
 0.94026551501E+01 0.96418820401E+01 0.96289391002E+01 0.93737590325E+01 0.89198054883E+01
 0.83247998559E+01 0.76452949009E+01 0.69324896812E+01 0.62349774556E+01 0.55994620549E+01
 0.50656371925E+01 0.46593797174E+01 0.48989466815E+01 0.44886771572E+01 0.42309702801E+01
 0.41218446704E+01 0.41586754702E+01 0.43404055667E+01 0.46647018544E+01 0.51263800351E+01
 0.57176370335E+01 0.64262512600E+01 0.72277673030E+01 0.80736948897E+01 0.88856595683E+01
 0.95662269805E+01 0.10026090848E+02 0.10212484940E+02 0.10120290915E+02 0.97808243326E+01
 0.92411466598E+01 0.85513092646E+01 0.77649431960E+01 0.69439697342E+01 0.61556782430E+01
 0.54604392216E+01 0.58397101467E+01 0.51065464608E+01 0.45507545035E+01 0.41745725330E+01
 0.39704385114E+01 0.39310495398E+01 0.40527372480E+01 0.43356801330E+01 0.47838584644E+01
 0.54034027890E+01 0.61949473920E+01 0.71378693229E+01 0.81727159455E+01 0.91965315094E+01
 0.10082991624E+02 0.10721636877E+02 0.11051980864E+02 0.11069356316E+02 0.10802763422E+02
 0.10288486120E+02 0.95628678902E+01 0.86747710805E+01 0.76976990510E+01 0.67235623819E+01
 0.72588902520E+01 0.61723408870E+01 0.52646505036E+01 0.45720495541E+01 0.40956078392E+01
 0.38217028475E+01 0.37367480239E+01 0.38343146115E+01 0.41180891749E+01 0.46019796776E+01
 0.53044579579E+01 0.62329835078E+01 0.73595133646E+01 0.85994413663E+01 0.98143709552E+01
 0.10849422865E+02 0.11585307497E+02 0.11961773142E+02 0.12015378173E+02 0.11808046597E+02
 0.11342516489E+02 0.10590825184E+02 0.95915232217E+01 0.84395394257E+01 0.91085555771E+01
 0.77157768820E+01 0.64287017126E+01 0.53590563214E+01 0.45507096817E+01 0.40002187112E+01
 0.36853887842E+01 0.35857945432E+01 0.36936920952E+01 0.40185092763E+01 0.45848147619E+01
 0.54199506466E+01 0.65283866488E+01 0.78587771958E+01 0.92845821481E+01 0.10624385902E+02
 0.11681000284E+02 0.12291431702E+02 0.12515443421E+02 0.12540489556E+02 0.12462793007E+02
 0.12184245147E+02 0.11523540345E+02 0.10440208187E+02 0.11147903178E+02 0.96468291510E+01
 0.80524133860E+01 0.65846274039E+01 0.53809887276E+01 0.44885868840E+01 0.38956362841E+01
 0.35699537690E+01 0.34854832509E+01 0.36360364430E+01 0.40393431203E+01 0.47301930645E+01
 0.57384031177E+01 0.70511990713E+01 0.85740984776E+01 0.10122512090E+02 0.11427263050E+02
 0.12157056958E+02 0.12304146813E+02 0.12206947244E+02 0.12238782185E+02 0.12472742277E+02
 0.12606584324E+02 0.12219378853E+02 0.12606687989E+02 0.11644492343E+02 0.10007039975E+02
 0.82371766803E+01 0.66251766078E+01 0.53283321005E+01 0.43908100254E+01 0.37894181651E+01
 0.34823519461E+01 0.34407781697E+01 0.36637474527E+01 0.41794018338E+01 0.50302316032E+01
 0.62383210677E+01 0.77551123919E+01 0.94219641315E+01 0.10949409717E+02 0.11820058903E+02
 0.11782151212E+02 0.11178994373E+02 0.10714175714E+02 0.10920760268E+02 0.11739310578E+02
 0.12543610159E+02 0.12096900192E+02 0.12708320585E+02 0.11897866498E+02 0.10158969409E+02
 0.82532512232E+01 0.65466484781E+01 0.52057976173E+01 0.42652623521E+01 0.36889297781E+01
 0.34277143627E+01 0.34542169221E+01 0.37765193934E+01 0.44338519048E+01 0.54709479077E+01
 0.68882737937E+01 0.85809858589E+01 0.10298702364E+02 0.11455523109E+02 0.11419504671E+02
 0.10248293139E+02 0.87674287951E+01 0.80611559952E+01 0.87235405491E+01 0.10419242529E+02
 0.88893749311E+01 0.11494048109E+02 0.12613586638E+02 0.11915367556E+02 0.10092849499E+02
 0.81007656103E+01 0.63570833054E+01 0.50243114370E+01 0.41215919488E+01 0.36006149830E+01
 0.34091487886E+01 0.35259338586E+01 0.39709523587E+01 0.47931159007E+01 0.60311615766E+01
 0.76480030099E+01 0.94639786599E+01 0.11015036256E+02 0.11377939123E+02 0.10062427285E+02
 0.75940229141E+01 0.53363502805E+01 0.46765053343E+01 0.61108413239E+01 0.37471436502E+01
 0.76213407952E+01 0.10993880323E+02 0.12423970135E+02 0.11722277752E+02 0.98196388007E+01
 0.77963315889E+01 0.60747326831E+01 0.47993109455E+01 0.39702164033E+01 0.35298092731E+01
 0.34277504114E+01 0.36532213327E+01 0.42395095616E+01 0.52416008701E+01 0.66820008947E+01
 0.84708974709E+01 0.10322271823E+02 0.11397288360E+02 0.10649680476E+02 0.79090584375E+01
 0.42584745938E+01 0.15495810586E+01 0.13064247679E+01 -.12032667922E+01 0.22821263457E+01
 0.70104367498E+01 0.10778033672E+02 0.12200198021E+02 0.11343092755E+02 0.93679914261E+01
 0.73697801441E+01 0.57252269488E+01 0.45490175197E+01 0.38215832134E+01 0.34804630775E+01
 0.34823978719E+01 0.38301756469E+01 0.45697916374E+01 0.57566983110E+01 0.73867862761E+01
 0.93069964585E+01 0.11042906348E+02 0.11407880640E+02 0.94497869541E+01 0.54349570220E+01
 0.99004610240E+00 -.17034809894E+01 0.14495274452E+01 0.22825636779E+01 0.53988468980E+01
 0.91710554867E+01 0.11768703085E+02 0.12235793956E+02 0.10897005522E+02 0.88790306656E+01
 0.69752996113E+01 0.54520887302E+01 0.43837778147E+01 0.37365368329E+01 0.34491838605E+01
 0.34853170512E+01 0.38539423430E+01 0.46030355512E+01 0.57846488925E+01 0.73890275528E+01
 0.92645844515E+01 0.10980425277E+02 0.11486446885E+02 0.99758387760E+01 0.67563038381E+01
 0.32991064148E+01 0.21252357930E+01 0.69745619677E+00 0.21254556812E+01 0.56296381528E+01
 0.93736631913E+01 0.11609256893E+02 0.11661261441E+02 0.10117186156E+02 0.81440898901E+01
 0.63714959348E+01 0.50081355371E+01 0.40947722907E+01 0.35855787721E+01 0.34236968869E+01
 0.35855773471E+01 0.40947592375E+01 0.50081425647E+01 0.63715307518E+01 0.81440719738E+01
 0.10117092622E+02 0.11661240663E+02 0.11609402042E+02 0.93737852673E+01 0.56295198311E+01
 0.53987641682E+01 0.22823354954E+01 0.14494785726E+01 0.32992773917E+01 0.67564277919E+01
 0.99757780568E+01 0.11486345621E+02 0.10980418555E+02 0.92646257005E+01 0.73890434751E+01
 0.57846504385E+01 0.46030367843E+01 0.38539305032E+01 0.34853117199E+01 0.34492011023E+01
 0.37365332991E+01 0.43837430000E+01 0.54521020040E+01 0.69753706438E+01 0.88790211168E+01
 0.10896870915E+02 0.12235735379E+02 0.11768862172E+02 0.91712266757E+01 0.95379120673E+01
 0.61894044741E+01 0.37472873096E+01 0.34872035060E+01 0.54352915841E+01 0.83759435578E+01
 0.10663259922E+02 0.11243480415E+02 0.10183685869E+02 0.83992062159E+01 0.66627052004E+01
 0.52508827499E+01 0.42594595529E+01 0.36734685864E+01 0.34406559675E+01 0.35248131290E+01
 0.39308632445E+01 0.47046534670E+01 0.59063828051E+01 0.75531720179E+01 0.95387251925E+01
 0.11549505666E+02 0.12724571027E+02 0.12081150239E+02 0.12555244260E+02 0.10421611242E+02
 0.77957275281E+01 0.61108646368E+01 0.62344311080E+01 0.79092108749E+01 0.99620078919E+01
 0.11109784023E+02 0.10768150220E+02 0.93068888008E+01 0.75691228669E+01 0.60055757050E+01
 0.47982599210E+01 0.39941375846E+01 0.35619289697E+01 0.34541983900E+01 0.36475459129E+01
 0.41585182724E+01 0.50374767939E+01 0.63379183660E+01 0.80578547212E+01 0.10065774077E+02
 0.12027662311E+02 0.13121704053E+02 0.13374779247E+02 0.13075112748E+02 0.11560778756E+02
 0.97536067773E+01 0.87234744400E+01 0.89606805581E+01 0.10062386473E+02 0.11057320456E+02
 0.11106581188E+02 0.10053298248E+02 0.84335917392E+01 0.68163114894E+01 0.54498451009E+01
 0.44471984982E+01 0.38182839255E+01 0.35242452501E+01 0.35259977042E+01 0.38120610242E+01
 0.44066242129E+01 0.53590144368E+01 0.67113955232E+01 0.84430787764E+01 0.10407503439E+02
 0.12284316269E+02 0.12276164287E+02 0.13396987692E+02 0.13442211048E+02 0.12582958811E+02
 0.11508210673E+02 0.10920620701E+02 0.11027015971E+02 0.11419313828E+02 0.11424764553E+02
 0.10636239274E+02 0.92092130341E+01 0.76279532983E+01 0.61783500260E+01 0.50200970751E+01
 0.42112985542E+01 0.37382820179E+01 0.35620634318E+01 0.36533867513E+01 0.40101337154E+01
 0.46593882687E+01 0.56443701148E+01 0.69931673739E+01 0.86696454661E+01 0.10524261594E+02
 0.10397335495E+02 0.11979256551E+02 0.13106313830E+02 0.13459085178E+02 0.13146625884E+02
 0.12607980881E+02 0.12238609263E+02 0.12079088900E+02 0.11819806147E+02 0.11103949339E+02
 0.98661195005E+01 0.83905324704E+01 0.69395940333E+01 0.56880015310E+01 0.47342885383E+01
 0.40987852741E+01 0.37565849047E+01 0.36737268963E+01 0.38304238231E+01 0.42303890890E+01
 0.48989206192E+01 0.58694193261E+01 0.71556930594E+01 0.87118850978E+01 0.85629062761E+01
 0.10033977760E+02 0.11408708484E+02 0.12472954786E+02 0.13016857215E+02 0.13067323868E+02
 0.12848227551E+02 0.12540342467E+02 0.12121640989E+02 0.11426995915E+02 0.10362600365E+02
 0.90540238525E+01 0.76850789017E+01 0.64173273327E+01 0.53724929547E+01 0.46049329340E+01
 0.41136356801E+01 0.38721211559E+01 0.38542083254E+01 0.40477897975E+01 0.44585872986E+01
 0.51064850745E+01 0.60136411176E+01 0.71820080857E+01 0.70689083532E+01 0.82364458766E+01
 0.94675116851E+01 0.10620561359E+02 0.11551138148E+02 0.12147546014E+02 0.12377778851E+02
 0.12314215498E+02 0.12015262131E+02 0.11462406155E+02 0.10624187807E+02 0.95548522472E+01
 0.83580260668E+01 0.71658797893E+01 0.61038427824E+01 0.52526356352E+01 0.46397625977E+01
 0.42563097760E+01 0.40806368287E+01 0.40950327931E+01 0.42926773727E+01 0.46782611673E+01
 0.52645139558E+01 0.60632924218E+01 0.60135014477E+01 0.68276502732E+01 0.77650498998E+01
 0.87526140337E+01 0.96886741771E+01 0.10469458903E+02 0.11019298447E+02 0.11303735249E+02
 0.11318735323E+02 0.11069313557E+02 0.10560562160E+02 0.98142454063E+01 0.88879011652E+01
 0.78775388852E+01 0.68943806501E+01 0.60313993409E+01 0.53422013066E+01 0.48420751597E+01
 0.45237834581E+01 0.43742408600E+01 0.43838958414E+01 0.45492231137E+01 0.48722700373E+01
 0.53588954477E+01 0.53808234216E+01 0.58691679552E+01 0.64822922045E+01 0.71946852138E+01
 0.79563750339E+01 0.86981843794E+01 0.93476374744E+01 0.98458282994E+01 0.10154325792E+02
 0.10250399098E+02 0.10120296462E+02 0.97618407107E+01 0.91964856260E+01 0.84784818852E+01
 0.76886212637E+01 0.69129067646E+01 0.62193813854E+01 0.56469864051E+01 0.52096892891E+01
 0.49083463921E+01 0.47405931210E+01 0.47046604336E+01 0.47994099081E+01 0.50244434449E+01
 0.51215426579E+01 0.53282104315E+01 0.56441322664E+01 0.60655132235E+01 0.65772186894E+01
 0.71481396722E+01 0.77341040340E+01 0.82867803495E+01 0.87620711275E+01 0.91226380323E+01
 0.93358198733E+01 0.93738094620E+01 0.92210861030E+01 0.88856651386E+01 0.84043406909E+01
 0.78351755951E+01 0.72406034603E+01 0.66717512063E+01 0.61624201433E+01 0.57327155683E+01
 0.53958390370E+01 0.51618493551E+01 0.50373156331E+01 0.50242456820E+01 0.52056171479E+01
 0.51549096096E+01 0.52057666443E+01 0.53588327864E+01 0.56136457464E+01 0.59631367662E+01
 0.63903733994E+01 0.68702218472E+01 0.73736223026E+01 0.78697685396E+01 0.83242302531E+01
 0.86965677838E+01 0.89435990157E+01 0.90304284596E+01 0.89435394960E+01 0.86965612117E+01
 0.83243028302E+01 0.78698012024E+01 0.73735414131E+01 0.68701340721E+01 0.63904188599E+01
 0.59632750670E+01 0.56136957627E+01 0.53587155256E+01 0.56440596780E+01 0.53280460351E+01
 0.51214833164E+01 0.50243552817E+01 0.50374565180E+01 0.51618565958E+01 0.53957230256E+01
 0.57326391547E+01 0.61624743079E+01 0.66718357597E+01 0.72405884100E+01 0.78351000693E+01
 0.84043369222E+01 0.88857335815E+01 0.92210986222E+01 0.93737371887E+01 0.93357929771E+01
 0.91227228311E+01 0.87621389252E+01 0.82867037555E+01 0.77339723089E+01 0.71481423781E+01
 0.65773687273E+01 0.60656211078E+01 0.64824280653E+01 0.58691609291E+01 0.53806903524E+01
 0.50243383312E+01 0.47994506026E+01 0.47047939200E+01 0.47406535307E+01 0.49082667081E+01
 0.52095947281E+01 0.56470102270E+01 0.62194642804E+01 0.69129034150E+01 0.76885456615E+01
 0.84784752873E+01 0.91965610629E+01 0.97618557254E+01 0.10120210247E+02 0.10250359970E+02
 0.10154421512E+02 0.98459218218E+01 0.93475734993E+01 0.86980342785E+01 0.79563374554E+01
 0.71948103837E+01 0.77651163076E+01 0.68277965494E+01 0.60135727412E+01 0.53588120079E+01
 0.48721254929E+01 0.45491962348E+01 0.43840197031E+01 0.43743392392E+01 0.45237218387E+01
 0.48419662469E+01 0.53422185227E+01 0.60314927642E+01 0.68943770519E+01 0.78774497627E+01
 0.88878951677E+01 0.98143386948E+01 0.10560583860E+02 0.11069209584E+02 0.11318673435E+02
 0.11303828781E+02 0.11019419041E+02 0.10469433160E+02 0.96885307160E+01 0.87525271683E+01
 0.94673942649E+01 0.82364349822E+01 0.70690309157E+01 0.60634241879E+01 0.52644909107E+01
 0.46781057761E+01 0.42926021057E+01 0.40951352693E+01 0.40807444686E+01 0.42562585326E+01
 0.46396605850E+01 0.52526610456E+01 0.61039338090E+01 0.71658620182E+01 0.83579340869E+01
 0.95548621595E+01 0.10624292766E+02 0.11462422514E+02 0.12015147427E+02 0.12314141287E+02
 0.12377856554E+02 0.12147671868E+02 0.11551158572E+02 0.10620458980E+02 0.11408679982E+02
 0.10033838520E+02 0.85628050556E+01 0.71820915692E+01 0.60138205200E+01 0.51065147575E+01
 0.44584292699E+01 0.40476865182E+01 0.38542992770E+01 0.38722289662E+01 0.41135839624E+01
 0.46048370285E+01 0.53725285908E+01 0.64174174708E+01 0.76850532332E+01 0.90539321943E+01
 0.10362613874E+02 0.11427100275E+02 0.12121666840E+02 0.12540245523E+02 0.12848139145E+02
 0.13067349154E+02 0.13016965225E+02 0.12473040870E+02 0.13106452666E+02 0.11979304342E+02
 0.10397197657E+02 0.87117211821E+01 0.71557342907E+01 0.58696073693E+01 0.48989749295E+01
 0.42302480782E+01 0.38303300562E+01 0.36738107221E+01 0.37566691138E+01 0.40987248334E+01
 0.47342140726E+01 0.56880550820E+01 0.69396727627E+01 0.83904915368E+01 0.98660317893E+01
 0.11103965874E+02 0.11819903569E+02 0.12079128917E+02 0.12238546313E+02 0.12607885660E+02