unknown system                          
   1.00000000000000     
     0.000000    2.715000    2.715000
     2.715000    0.000000    2.715000
     2.715000    2.715000    0.000000
   Si
     2
Direct
  0.500000  0.500000  0.500000
  0.750000  0.750000  0.750000
 
   32   32   32
 0.85158     0.87204     0.93528      1.0465      1.2134      1.4449      1.7503      2.1381      2.6134      3.1748    
  3.8090      4.4879      5.1671      5.7895      6.2934      6.6223      6.7367      6.6222      6.2933      5.7896    
  5.1671      4.4880      3.8091      3.1748      2.6134      2.1380      1.7503      1.4449      1.2134      1.0465    
 0.93529     0.87204     0.87204     0.90704     0.98024      1.0973      1.2651      1.4909      1.7811      2.1400    
  2.5682      3.0591      3.5962      4.1507      4.6819      5.1417      5.4819      5.6630      5.6630      5.4819    
  5.1417      4.6819      4.1507      3.5963      3.0591      2.5682      2.1400      1.7810      1.4909      1.2651    
  1.0973     0.98025     0.90705     0.87204     0.93528     0.98024      1.0595      1.1785      1.3430      1.5582    
  1.8276      2.1523      2.5293      2.9490      3.3932      3.8344      4.2369      4.5618      4.7736      4.8472    
  4.7736      4.5618      4.2369      3.8344      3.3932      2.9490      2.5293      2.1523      1.8276      1.5581    
  1.3430      1.1785      1.0595     0.98025     0.93527     0.92076      1.0465      1.0973      1.1785      1.2950    
  1.4510      1.6499      1.8930      2.1793      2.5031      2.8533      3.2115      3.5525      3.8465      4.0633    
  4.1787      4.1787      4.0633      3.8465      3.5525      3.2115      2.8533      2.5030      2.1792      1.8930    
  1.6499      1.4510      1.2950      1.1785      1.0973      1.0465      1.0223      1.0223      1.2134      1.2651    
  1.3430      1.4510      1.5922      1.7685      1.9801      2.2241      2.4938      2.7773      3.0571      3.3110    
  3.5153      3.6482      3.6943      3.6482      3.5153      3.3110      3.0570      2.7773      2.4938      2.2241    
  1.9800      1.7685      1.5922      1.4510      1.3430      1.2651      1.2134      1.1842      1.1749      1.1842    
  1.4449      1.4909      1.5582      1.6499      1.7685      1.9153      2.0898      2.2882      2.5031      2.7226    
  2.9310      3.1100      3.2417      3.3117      3.3117      3.2417      3.1100      2.9309      2.7226      2.5030    
  2.2882      2.0898      1.9154      1.7685      1.6499      1.5582      1.4909      1.4449      1.4167      1.4035    
  1.4035      1.4167      1.7503      1.7811      1.8276      1.8930      1.9801      2.0898      2.2212      2.3703    
  2.5293      2.6873      2.8310      2.9465      3.0216      3.0476      3.0216      2.9465      2.8310      2.6873    
  2.5294      2.3703      2.2213      2.0898      1.9801      1.8931      1.8276      1.7810      1.7503      1.7317    
  1.7222      1.7193      1.7222      1.7317      2.1381      2.1400      2.1523      2.1793      2.2241      2.2882    
  2.3703      2.4661      2.5682      2.6674      2.7536      2.8174      2.8514      2.8514      2.8175      2.7536    
  2.6674      2.5682      2.4661      2.3704      2.2882      2.2240      2.1792      2.1523      2.1400      2.1380    
  2.1419      2.1474      2.1510      2.1510      2.1473      2.1419      2.6134      2.5682      2.5293      2.5031    
  2.4938      2.5031      2.5293      2.5682      2.6134      2.6582      2.6958      2.7208      2.7296      2.7209    
  2.6959      2.6582      2.6134      2.5681      2.5293      2.5031      2.4938      2.5030      2.5293      2.5681    
  2.6134      2.6582      2.6958      2.7209      2.7296      2.7208      2.6958      2.6582      3.1748      3.0591    
  2.9490      2.8533      2.7773      2.7226      2.6873      2.6674      2.6582      2.6554      2.6554      2.6561    
  2.6561      2.6555      2.6554      2.6582      2.6673      2.6872      2.7225      2.7772      2.8533      2.9490    
  3.0591      3.1748      3.2854      3.3799      3.4489      3.4852      3.4852      3.4489      3.3799      3.2854    
  3.8090      3.5962      3.3932      3.2115      3.0571      2.9310      2.8310      2.7536      2.6958      2.6554    
  2.6314      2.6235      2.6315      2.6555      2.6958      2.7536      2.8309      2.9309      3.0570      3.2115    
  3.3932      3.5963      3.8091      4.0161      4.2001      4.3448      4.4372      4.4689      4.4372      4.3448    
  4.2000      4.0161      4.4879      4.1507      3.8344      3.5525      3.3110      3.1100      2.9465      2.8174    
  2.7208      2.6561      2.6235      2.6235      2.6561      2.7208      2.8174      2.9464      3.1099      3.3110    
  3.5525      3.8344      4.1507      4.4879      4.8252      5.1371      5.3981      5.5857      5.6838      5.6838    
  5.5857      5.3981      5.1371      4.8251      5.1671      4.6819      4.2369      3.8465      3.5153      3.2417    
  3.0216      2.8514      2.7296      2.6561      2.6315      2.6561      2.7296      2.8514      3.0215      3.2417    
  3.5153      3.8464      4.2369      4.6820      5.1671      5.6668      6.1471      6.5706      6.9020      7.1129    
  7.1853      7.1130      6.9020      6.5707      6.1471      5.6668      5.7895      5.1417      4.5618      4.0633    
  3.6482      3.3117      3.0476      2.8514      2.7209      2.6555      2.6555      2.7208      2.8514      3.0475    
  3.3116      3.6482      4.0633      4.5618      5.1418      5.7896      6.4770      7.1619      7.7944      8.3235    
  8.7043      8.9034      8.9034      8.7043      8.3236      7.7945      7.1619      6.4769      6.2934      5.4819    
  4.7736      4.1787      3.6943      3.3117      3.0216      2.8175      2.6959      2.6554      2.6958      2.8174    
  3.0215      3.3116      3.6943      4.1787      4.7736      5.4819      6.2934      7.1799      8.0945      8.9758    
  9.7560      10.370      10.762      10.897      10.762      10.370      9.7560      8.9758      8.0945      7.1799    
  6.6223      5.6630      4.8472      4.1787      3.6482      3.2417      2.9465      2.7536      2.6582      2.6582    
  2.7536      2.9464      3.2417      3.6482      4.1787      4.8472      5.6630      6.6224      7.7009      8.8511    
  10.005      11.079      11.988      12.648      12.997      12.997      12.648      11.988      11.079      10.005    
  8.8511      7.7009      6.7367      5.6630      4.7736      4.0633      3.5153      3.1100      2.8310      2.6674    
  2.6134      2.6673      2.8309      3.1099      3.5153      4.0633      4.7736      5.6630      6.7367      7.9786    
  9.3460      10.770      12.160      13.410      14.412      15.062      15.287      15.062      14.412      13.410    
  12.160      10.770      9.3460      7.9786      6.6222      5.4819      4.5618      3.8465      3.3110      2.9309    
  2.6873      2.5682      2.5681      2.6872      2.9309      3.3110      3.8464      4.5618      5.4819      6.6224    
  7.9786      9.5182      11.179      12.871      14.480      15.871      16.894      17.435      17.435      16.894    
  15.871      14.480      12.871      11.179      9.5183      7.9785      6.2933      5.1417      4.2369      3.5525    
  3.0570      2.7226      2.5294      2.4661      2.5293      2.7225      3.0570      3.5525      4.2369      5.1418    
  6.2934      7.7009      9.3460      11.179      13.119      15.056      16.836      18.268      19.196      19.517    
  19.196      18.268      16.836      15.056      13.119      11.179      9.3460      7.7009      5.7896      4.6819    
  3.8344      3.2115      2.7773      2.5030      2.3703      2.3704      2.5031      2.7772      3.2115      3.8344    
  4.6820      5.7896      7.1799      8.8511      10.770      12.871      15.056      17.174      19.006      20.356    
  21.073      21.073      20.356      19.006      17.174      15.056      12.871      10.770      8.8511      7.1800    
  5.1671      4.1507      3.3932      2.8533      2.4938      2.2882      2.2213      2.2882      2.4938      2.8533    
  3.3932      4.1507      5.1671      6.4770      8.0945      10.005      12.160      14.480      16.836      19.006    
  20.761      21.907      22.307      21.908      20.762      19.006      16.836      14.480      12.160      10.005    
  8.0945      6.4769      4.4880      3.5963      2.9490      2.5030      2.2241      2.0898      2.0898      2.2240    
  2.5030      2.9490      3.5963      4.4879      5.6668      7.1619      8.9758      11.079      13.410      15.871    
  18.268      20.356      21.907      22.737      22.738      21.908      20.356      18.268      15.871      13.411    
  11.079      8.9757      7.1619      5.6669      3.8091      3.0591      2.5293      2.1792      1.9800      1.9154    
  1.9801      2.1792      2.5293      3.0591      3.8091      4.8252      6.1471      7.7944      9.7560      11.988    
  14.412      16.894      19.196      21.073      22.307      22.738      22.306      21.073      19.196      16.894    
  14.412      11.988      9.7560      7.7945      6.1472      4.8252      3.1748      2.5682      2.1523      1.8930    
  1.7685      1.7685      1.8931      2.1523      2.5681      3.1748      4.0161      5.1371      6.5706      8.3235    
  10.370      12.648      15.062      17.435      19.517      21.073      21.908      21.908      21.073      19.517    
  17.435      15.062      12.648      10.370      8.3236      6.5707      5.1372      4.0161      2.6134      2.1400    
  1.8276      1.6499      1.5922      1.6499      1.8276      2.1400      2.6134      3.2854      4.2001      5.3981    
  6.9020      8.7043      10.762      12.997      15.287      17.435      19.196      20.356      20.762      20.356    
  19.196      17.435      15.287      12.997      10.762      8.7043      6.9020      5.3982      4.2002      3.2854    
  2.1380      1.7810      1.5581      1.4510      1.4510      1.5582      1.7810      2.1380      2.6582      3.3799    
  4.3448      5.5857      7.1129      8.9034      10.897      12.997      15.062      16.894      18.268      19.006    
  19.006      18.268      16.894      15.062      12.997      10.897      8.9035      7.1130      5.5858      4.3449    
  3.3800      2.6582      1.7503      1.4909      1.3430      1.2950      1.3430      1.4909      1.7503      2.1419    
  2.6958      3.4489      4.4372      5.6838      7.1853      8.9034      10.762      12.648      14.412      15.871    
  16.836      17.174      16.836      15.871      14.412      12.648      10.762      8.9035      7.1854      5.6838    
  4.4373      3.4489      2.6958      2.1419      1.4449      1.2651      1.1785      1.1785      1.2651      1.4449    
  1.7317      2.1474      2.7209      3.4852      4.4689      5.6838      7.1130      8.7043      10.370      11.988    
  13.410      14.480      15.056      15.056      14.480      13.411      11.988      10.370      8.7043      7.1130    
  5.6838      4.4690      3.4852      2.7209      2.1473      1.7317      1.2134      1.0973      1.0595      1.0973    
  1.2134      1.4167      1.7222      2.1510      2.7296      3.4852      4.4372      5.5857      6.9020      8.3236    
  9.7560      11.079      12.160      12.871      13.119      12.871      12.160      11.079      9.7560      8.3236    
  6.9020      5.5858      4.4373      3.4852      2.7296      2.1510      1.7221      1.4167      1.0465     0.98025    
 0.98025      1.0465      1.1842      1.4035      1.7193      2.1510      2.7208      3.4489      4.3448      5.3981    
  6.5707      7.7945      8.9758      10.005      10.770      11.179      11.179      10.770      10.005      8.9757    
  7.7945      6.5707      5.3982      4.3449      3.4489      2.7209      2.1510      1.7193      1.4035      1.1842    
 0.93529     0.90705     0.93527      1.0223      1.1749      1.4035      1.7222      2.1473      2.6958      3.3799    
  4.2000      5.1371      6.1471      7.1619      8.0945      8.8511      9.3460      9.5183      9.3460      8.8511    
  8.0945      7.1619      6.1472      5.1372      4.2002      3.3800      2.6958      2.1473      1.7221      1.4035    
  1.1748      1.0223     0.87204     0.87204     0.92076      1.0223      1.1842      1.4167      1.7317      2.1419    
  2.6582      3.2854      4.0161      4.8251      5.6668      6.4769      7.1799      7.7009      7.9786      7.9785    
  7.7009      7.1800      6.4769      5.6669      4.8252      4.0161      3.2854      2.6582      2.1419      1.7317    
  1.4167      1.1842      1.0223     0.92077     0.87204     0.90705     0.98024      1.0973      1.2651      1.4909    
  1.7811      2.1400      2.5682      3.0591      3.5962      4.1507      4.6819      5.1418      5.4819      5.6630    
  5.6630      5.4819      5.1417      4.6819      4.1507      3.5963      3.0591      2.5682      2.1400      1.7810    
  1.4909      1.2651      1.0973     0.98025     0.90705     0.87204     0.90705     0.95050      1.0274      1.1431    
  1.3035      1.5139      1.7779      2.0963      2.4661      2.8775      3.3127      3.7445      4.1380      4.4554    
  4.6621      4.7340      4.6621      4.4554      4.1380      3.7445      3.3128      2.8776      2.4660      2.0962    
  1.7778      1.5139      1.3036      1.1431      1.0274     0.95051     0.90705     0.89305     0.98024      1.0274    
  1.1034      1.2133      1.3616      1.5516      1.7847      2.0595      2.3703      2.7062      3.0494      3.3757    
  3.6564      3.8634      3.9733      3.9733      3.8634      3.6565      3.3757      3.0494      2.7062      2.3703    
  2.0594      1.7847      1.5516      1.3616      1.2133      1.1034      1.0274     0.98024     0.95789     0.95789    
  1.0973      1.1431      1.2133      1.3121      1.4428      1.6075      1.8058      2.0349      2.2882      2.5542    
  2.8165      3.0544      3.2456      3.3699      3.4129      3.3698      3.2456      3.0545      2.8166      2.5542    
  2.2881      2.0349      1.8058      1.6075      1.4429      1.3121      1.2133      1.1431      1.0973      1.0718    
  1.0637      1.0718      1.2651      1.3035      1.3616      1.4428      1.5499      1.6839      1.8439      2.0263    
  2.2241      2.4263      2.6184      2.7835      2.9051      2.9697      2.9697      2.9051      2.7835      2.6184    
  2.4263      2.2241      2.0263      1.8439      1.6839      1.5499      1.4429      1.3616      1.3035      1.2651    
  1.2424      1.2320      1.2320      1.2424      1.4909      1.5139      1.5516      1.6075      1.6839      1.7818    
  1.9001      2.0349      2.1793      2.3233      2.4548      2.5609      2.6301      2.6541      2.6301      2.5610    
  2.4548      2.3233      2.1792      2.0349      1.9002      1.7819      1.6839      1.6074      1.5516      1.5139    
  1.4909      1.4785      1.4730      1.4715      1.4730      1.4786      1.7811      1.7779      1.7847      1.8058    
  1.8439      1.9001      1.9733      2.0595      2.1523      2.2435      2.3235      2.3832      2.4151      2.4151    
  2.3832      2.3236      2.2435      2.1523      2.0595      1.9733      1.9002      1.8439      1.8058      1.7847    
  1.7778      1.7811      1.7896      1.7987      1.8044      1.8044      1.7987      1.7896      2.1400      2.0963    
  2.0595      2.0349      2.0263      2.0349      2.0595      2.0963      2.1400      2.1841      2.2218      2.2472    
  2.2562      2.2472      2.2218      2.1841      2.1400      2.0963      2.0595      2.0349      2.0263      2.0349    
  2.0595      2.0963      2.1400      2.1841      2.2218      2.2472      2.2562      2.2472      2.2218      2.1841    
  2.5682      2.4661      2.3703      2.2882      2.2241      2.1793      2.1523      2.1400      2.1381      2.1419    
  2.1473      2.1510      2.1510      2.1474      2.1419      2.1380      2.1400      2.1523      2.1792      2.2240    
  2.2882      2.3703      2.4661      2.5682      2.6674      2.7536      2.8175      2.8514      2.8514      2.8174    
  2.7536      2.6674      3.0591      2.8775      2.7062      2.5542      2.4263      2.3233      2.2435      2.1841    
  2.1419      2.1142      2.0986      2.0936      2.0986      2.1142      2.1419      2.1841      2.2434      2.3232    
  2.4262      2.5543      2.7063      2.8776      3.0591      3.2381      3.3996      3.5286      3.6118      3.6406    
  3.6118      3.5285      3.3996      3.2381      3.5962      3.3127      3.0494      2.8165      2.6184      2.4548    
  2.3235      2.2218      2.1473      2.0986      2.0744      2.0744      2.0986      2.1473      2.2218      2.3235    
  2.4547      2.6182      2.8165      3.0496      3.3130      3.5963      3.8834      4.1532      4.3825      4.5497    
  4.6379      4.6379      4.5497      4.3825      4.1532      3.8834      4.1507      3.7445      3.3757      3.0544    
  2.7835      2.5609      2.3832      2.2472      2.1510      2.0936      2.0744      2.0935      2.1510      2.2472    
  2.3831      2.5607      2.7834      3.0545      3.3759      3.7448      4.1508      4.5749      4.9893      5.3614    
  5.6574      5.8483      5.9142      5.8483      5.6574      5.3613      4.9893      4.5748      4.6819      4.1380    
  3.6564      3.2456      2.9051      2.6301      2.4151      2.2562      2.1510      2.0986      2.0986      2.1510    
  2.2562      2.4150      2.6298      2.9049      3.2456      3.6567      4.1384      4.6821      5.2675      5.8616    
  6.4211      6.8980      7.2465      7.4307      7.4308      7.2466      6.8980      6.4212      5.8617      5.2676    
  5.1418      4.4554      3.8634      3.3699      2.9697      2.6541      2.4151      2.2472      2.1474      2.1142    
  2.1473      2.2472      2.4150      2.6538      2.9694      3.3698      3.8636      4.4558      5.1420      5.9033    
  6.7038      7.4910      8.2018      8.7703      9.1385      9.2660      9.1385      8.7704      8.2018      7.4911    
  6.7039      5.9034      5.4819      4.6621      3.9733      3.4129      2.9697      2.6301      2.3832      2.2218    
  2.1419      2.1419      2.2218      2.3831      2.6298      2.9694      3.4129      3.9736      4.6625      5.4821    
  6.4186      7.4368      8.4790      9.4687      10.319      10.945      11.277      11.277      10.945      10.319    
  9.4687      8.4791      7.4370      6.4186      5.6630      4.7340      3.9733      3.3698      2.9051      2.5610    
  2.3236      2.1841      2.1380      2.1841      2.3235      2.5607      2.9049      3.3698      3.9736      4.7344    
  5.6632      6.7552      7.9812      9.2837      10.578      11.760      12.716      13.340      13.557      13.340    
  12.716      11.760      10.578      9.2838      7.9814      6.7552      5.6630      4.6621      3.8634      3.2456    
  2.7835      2.4548      2.2435      2.1400      2.1400      2.2434      2.4547      2.7834      3.2456      3.8636    
  4.6625      5.6632      6.8724      8.2718      9.8114      11.407      12.943      14.283      15.281      15.817    
  15.817      15.281      14.283      12.943      11.407      9.8116      8.2720      6.8724      5.4819      4.4554    
  3.6565      3.0545      2.6184      2.3233      2.1523      2.0963      2.1523      2.3232      2.6182      3.0545    
  3.6567      4.4558      5.4821      6.7552      8.2718      9.9955      11.851      13.725      15.464      16.895    
  17.842      18.174      17.842      16.895      15.464      13.725      11.851      9.9956      8.2720      6.7553    
  5.1417      4.1380      3.3757      2.8166      2.4263      2.1792      2.0595      2.0595      2.1792      2.4262    
  2.8165      3.3759      4.1384      5.1420      6.4186      7.9812      9.8114      11.851      13.998      16.102    
  17.971      19.386      20.149      20.149      19.386      17.972      16.103      13.998      11.851      9.8115    
  7.9814      6.4187      4.6819      3.7445      3.0494      2.5542      2.2241      2.0349      1.9733      2.0349    
  2.2240      2.5543      3.0496      3.7448      4.6821      5.9033      7.4368      9.2837      11.407      13.725    
  16.102      18.350      20.223      21.468      21.906      21.468      20.223      18.350      16.103      13.725    
  11.407      9.2838      7.4370      5.9034      4.1507      3.3128      2.7062      2.2881      2.0263      1.9002    
  1.9002      2.0263      2.2882      2.7063      3.3130      4.1508      5.2675      6.7038      8.4790      10.578    
  12.943      15.464      17.971      20.223      21.932      22.858      22.858      21.933      20.223      17.971    
  15.464      12.943      10.578      8.4791      6.7038      5.2675      3.5963      2.8776      2.3703      2.0349    
  1.8439      1.7819      1.8439      2.0349      2.3703      2.8776      3.5963      4.5749      5.8616      7.4910    
  9.4687      11.760      14.283      16.895      19.386      21.468      22.858      23.346      22.858      21.468    
  19.386      16.895      14.283      11.760      9.4688      7.4910      5.8616      4.5748      3.0591      2.4660    
  2.0594      1.8058      1.6839      1.6839      1.8058      2.0595      2.4661      3.0591      3.8834      4.9893    
  6.4211      8.2018      10.319      12.716      15.281      17.842      20.149      21.906      22.858      22.858    
  21.906      20.149      17.842      15.281      12.716      10.319      8.2017      6.4210      4.9893      3.8834    
  2.5682      2.0962      1.7847      1.6075      1.5499      1.6074      1.7847      2.0963      2.5682      3.2381    
  4.1532      5.3614      6.8980      8.7703      10.945      13.340      15.817      18.174      20.149      21.468    
  21.933      21.468      20.149      18.174      15.817      13.340      10.945      8.7703      6.8978      5.3612    
  4.1532      3.2382      2.1400      1.7778      1.5516      1.4429      1.4429      1.5516      1.7778      2.1400    
  2.6674      3.3996      4.3825      5.6574      7.2465      9.1385      11.277      13.557      15.817      17.842    
  19.386      20.223      20.223      19.386      17.842      15.817      13.557      11.278      9.1384      7.2463    
  5.6572      4.3825      3.3998      2.6674      1.7810      1.5139      1.3616      1.3121      1.3616      1.5139    
  1.7811      2.1841      2.7536      3.5286      4.5497      5.8483      7.4307      9.2660      11.277      13.340    
  15.281      16.895      17.972      18.350      17.971      16.895      15.281      13.340      11.278      9.2659    
  7.4305      5.8481      4.5498      3.5287      2.7537      2.1841      1.4909      1.3036      1.2133      1.2133    
  1.3035      1.4909      1.7896      2.2218      2.8175      3.6118      4.6379      5.9142      7.4308      9.1385    
  10.945      12.716      14.283      15.464      16.103      16.103      15.464      14.283      12.716      10.945    
  9.1384      7.4305      5.9140      4.6380      3.6120      2.8176      2.2218      1.7895      1.2651      1.1431    
  1.1034      1.1431      1.2651      1.4785      1.7987      2.2472      2.8514      3.6406      4.6379      5.8483    
  7.2466      8.7704      10.319      11.760      12.943      13.725      13.998      13.725      12.943      11.760    
  10.319      8.7703      7.2463      5.8481      4.6380      3.6408      2.8515      2.2472      1.7986      1.4785    
  1.0973      1.0274      1.0274      1.0973      1.2424      1.4730      1.8044      2.2562      2.8514      3.6118    
  4.5497      5.6574      6.8980      8.2018      9.4687      10.578      11.407      11.851      11.851      11.407    
  10.578      9.4688      8.2017      6.8978      5.6572      4.5498      3.6120      2.8515      2.2562      1.8043    
  1.4730      1.2424     0.98025     0.95051     0.98024      1.0718      1.2320      1.4715      1.8044      2.2472    
  2.8174      3.5285      4.3825      5.3613      6.4212      7.4911      8.4791      9.2838      9.8116      9.9956    
  9.8115      9.2838      8.4791      7.4910      6.4210      5.3612      4.3825      3.5287      2.8176      2.2472    
  1.8043      1.4715      1.2320      1.0718     0.90705     0.90705     0.95789      1.0637      1.2320      1.4730    
  1.7987      2.2218      2.7536      3.3996      4.1532      4.9893      5.8617      6.7039      7.4370      7.9814    
  8.2720      8.2720      7.9814      7.4370      6.7038      5.8616      4.9893      4.1532      3.3998      2.7537    
  2.2218      1.7986      1.4730      1.2320      1.0637     0.95789     0.87204     0.89305     0.95789      1.0718    
  1.2424      1.4786      1.7896      2.1841      2.6674      3.2381      3.8834      4.5748      5.2676      5.9034    
  6.4186      6.7552      6.8724      6.7553      6.4187      5.9034      5.2675      4.5748      3.8834      3.2382    
  2.6674      2.1841      1.7895      1.4785      1.2424      1.0718     0.95789     0.89302     0.93529     0.98025    
  1.0595      1.1785      1.3430      1.5582      1.8276      2.1523      2.5293      2.9490      3.3932      3.8344    
  4.2369      4.5618      4.7736      4.8472      4.7736      4.5618      4.2369      3.8344      3.3932      2.9490    
  2.5293      2.1523      1.8275      1.5581      1.3430      1.1785      1.0595     0.98025     0.93528     0.92076    
 0.98025      1.0274      1.1034      1.2133      1.3616      1.5516      1.7847      2.0595      2.3703      2.7062    
  3.0494      3.3757      3.6564      3.8634      3.9733      3.9733      3.8634      3.6565      3.3757      3.0494    
  2.7062      2.3703      2.0594      1.7847      1.5516      1.3616      1.2133      1.1034      1.0274     0.98024    
 0.95789     0.95789      1.0595      1.1034      1.1711      1.2669      1.3942      1.5549      1.7490      1.9733    
  2.2213      2.4817      2.7383      2.9709      3.1578      3.2791      3.3212      3.2792      3.1578      2.9709    
  2.7383      2.4817      2.2213      1.9733      1.7489      1.5549      1.3942      1.2669      1.1711      1.1034    
  1.0595      1.0353      1.0276      1.0353      1.1785      1.2133      1.2669      1.3430      1.4445      1.5723    
  1.7253      1.9001      2.0898      2.2837      2.4680      2.6263      2.7429      2.8048      2.8048      2.7429    
  2.6263      2.4680      2.2837      2.0898      1.9001      1.7254      1.5723      1.4445      1.3431      1.2669    
  1.2133      1.1785      1.1584      1.1494      1.1494      1.1584      1.3430      1.3616      1.3942      1.4445    
  1.5149      1.6062      1.7171      1.8439      1.9801      2.1162      2.2407      2.3413      2.4069      2.4297    
  2.4069      2.3413      2.2407      2.1162      1.9801      1.8439      1.7171      1.6062      1.5149      1.4445    
  1.3942      1.3616      1.3430      1.3342      1.3309      1.3302      1.3309      1.3342      1.5582      1.5516    
  1.5549      1.5723      1.6062      1.6576      1.7253      1.8058      1.8931      1.9792      2.0553      2.1122    
  2.1426      2.1427      2.1122      2.0553      1.9792      1.8930      1.8058      1.7254      1.6576      1.6062    
  1.5723      1.5550      1.5516      1.5581      1.5696      1.5810      1.5878      1.5878      1.5810      1.5696    
  1.8276      1.7847      1.7490      1.7253      1.7171      1.7253      1.7490      1.7847      1.8276      1.8712    
  1.9089      1.9344      1.9434      1.9344      1.9089      1.8712      1.8276      1.7847      1.7490      1.7254    
  1.7171      1.7254      1.7490      1.7847      1.8276      1.8712      1.9089      1.9344      1.9434      1.9344    
  1.9089      1.8712      2.1523      2.0595      1.9733      1.9001      1.8439      1.8058      1.7847      1.7779    
  1.7811      1.7896      1.7987      1.8044      1.8044      1.7987      1.7896      1.7811      1.7778      1.7847    
  1.8058      1.8439      1.9002      1.9733      2.0595      2.1523      2.2435      2.3236      2.3832      2.4151    
  2.4151      2.3832      2.3235      2.2435      2.5293      2.3703      2.2213      2.0898      1.9801      1.8931    
  1.8276      1.7811      1.7503      1.7317      1.7222      1.7193      1.7222      1.7317      1.7503      1.7810    
  1.8276      1.8931      1.9801      2.0898      2.2213      2.3703      2.5294      2.6873      2.8310      2.9465    
  3.0216      3.0476      3.0216      2.9465      2.8310      2.6873      2.9490      2.7062      2.4817      2.2837    
  2.1162      1.9792      1.8712      1.7896      1.7317      1.6950      1.6772      1.6772      1.6950      1.7317    
  1.7896      1.8712      1.9792      2.1162      2.2838      2.4817      2.7063      2.9490      3.1964      3.4305    
  3.6311      3.7783      3.8563      3.8563      3.7783      3.6311      3.4305      3.1964      3.3932      3.0494    
  2.7383      2.4680      2.2407      2.0553      1.9089      1.7987      1.7222      1.6772      1.6624      1.6772    
  1.7221      1.7987      1.9089      2.0553      2.2407      2.4680      2.7384      3.0495      3.3933      3.7543    
  4.1097      4.4315      4.6896      4.8571      4.9152      4.8571      4.6896      4.4315      4.1097      3.7542    
  3.8344      3.3757      2.9709      2.6263      2.3413      2.1122      1.9344      1.8044      1.7193      1.6772    
  1.6772      1.7192      1.8043      1.9344      2.1122      2.3414      2.6264      2.9710      3.3757      3.8344    
  4.3313      4.8397      5.3231      5.7390      6.0455      6.2083      6.2083      6.0455      5.7390      5.3231    
  4.8397      4.3313      4.2369      3.6564      3.1578      2.7429      2.4069      2.1426      1.9434      1.8044    
  1.7222      1.6950      1.7221      1.8043      1.9434      2.1427      2.4069      2.7429      3.1579      3.6565    