   2   2   0   0
  0.1529437E+02  0.3691622E-09  0.3691622E-09  0.3691622E-09  0.5000000E-15
  1.000000000000000E-004
  CAR 
 unknown system                          
     21.69372402     -6.56994138  301      9.12399216      1.00000000
     -6.570  0.0000E+00  0.0000E+00
     -6.476  0.0000E+00  0.0000E+00
     -6.382  0.0000E+00  0.0000E+00
     -6.287  0.0000E+00  0.0000E+00
     -6.193  0.0000E+00  0.0000E+00
     -6.099  0.0000E+00  0.0000E+00
     -6.005  0.0000E+00  0.0000E+00
     -5.910  0.0000E+00  0.0000E+00
     -5.816  0.0000E+00  0.0000E+00
     -5.722  0.8729E-17  0.8224E-18
     -5.628  0.1935E-14  0.1831E-15
     -5.534  0.2466E-12  0.2341E-13
     -5.439  0.2032E-10  0.1938E-11
     -5.345  0.1083E-08  0.1040E-09
     -5.251  0.3736E-07  0.3624E-08
     -5.157  0.8351E-06  0.8230E-07
     -5.063  0.1211E-04  0.1223E-05
     -4.968  0.1140E-03  0.1197E-04
     -4.874  0.6982E-03  0.7774E-04
     -4.780  0.2782E-02  0.3398E-03
     -4.686  0.7219E-02  0.1020E-02
     -4.591  0.1221E-01  0.2170E-02
     -4.497  0.1346E-01  0.3439E-02
     -4.403  0.9681E-02  0.4351E-02
     -4.309  0.4537E-02  0.4778E-02
     -4.215  0.1386E-02  0.4909E-02
     -4.120  0.2755E-03  0.4935E-02
     -4.026  0.3563E-04  0.4938E-02
     -3.932  0.2999E-05  0.4938E-02
     -3.838  0.3545E-06  0.4938E-02
     -3.744  0.4145E-05  0.4939E-02
     -3.649  0.5812E-04  0.4944E-02
     -3.555  0.5300E-03  0.4994E-02
     -3.461  0.3142E-02  0.5290E-02
     -3.367  0.1213E-01  0.6433E-02
     -3.273  0.3048E-01  0.9304E-02
     -3.178  0.4993E-01  0.1401E-01
     -3.084  0.5333E-01  0.1903E-01
     -2.990  0.3714E-01  0.2253E-01
     -2.896  0.1686E-01  0.2412E-01
     -2.801  0.4986E-02  0.2459E-01
     -2.707  0.9601E-03  0.2468E-01
     -2.613  0.1202E-03  0.2469E-01
     -2.519  0.9803E-05  0.2469E-01
     -2.425  0.1116E-05  0.2469E-01
     -2.330  0.1154E-04  0.2469E-01
     -2.236  0.1461E-03  0.2471E-01
     -2.142  0.1231E-02  0.2482E-01
     -2.048  0.6956E-02  0.2548E-01
     -1.954  0.2665E-01  0.2799E-01
     -1.859  0.6980E-01  0.3456E-01
     -1.765  0.1256E+00  0.4640E-01
     -1.671  0.1553E+00  0.6103E-01
     -1.577  0.1311E+00  0.7337E-01
     -1.482  0.7489E-01  0.8043E-01
     -1.388  0.2869E-01  0.8313E-01
     -1.294  0.7308E-02  0.8382E-01
     -1.200  0.1228E-02  0.8394E-01
     -1.106  0.1355E-03  0.8395E-01
     -1.011  0.9763E-05  0.8395E-01
     -0.917  0.4583E-06  0.8395E-01
     -0.823  0.1397E-07  0.8395E-01
     -0.729  0.2763E-09  0.8395E-01
     -0.635  0.3537E-11  0.8395E-01
     -0.540  0.2924E-13  0.8395E-01
     -0.446  0.1862E-15  0.8395E-01
     -0.352  0.0000E+00  0.8395E-01
     -0.258  0.0000E+00  0.8395E-01
     -0.164  0.1397E-15  0.8395E-01
     -0.069  0.2509E-13  0.8395E-01
      0.025  0.3036E-11  0.8395E-01
      0.119  0.2392E-09  0.8395E-01
      0.213  0.1231E-07  0.8395E-01
      0.308  0.4150E-06  0.8395E-01
      0.402  0.9195E-05  0.8395E-01
      0.496  0.1344E-03  0.8396E-01
      0.590  0.1301E-02  0.8409E-01
      0.684  0.8378E-02  0.8488E-01
      0.779  0.3602E-01  0.8827E-01
      0.873  0.1038E+00  0.9805E-01
      0.967  0.2010E+00  0.1170E+00
      1.061  0.2620E+00  0.1417E+00
      1.155  0.2298E+00  0.1633E+00
      1.250  0.1355E+00  0.1761E+00
      1.344  0.5411E-01  0.1812E+00
      1.438  0.1748E-01  0.1828E+00
      1.532  0.1520E-01  0.1843E+00
      1.627  0.3169E-01  0.1872E+00
      1.721  0.5053E-01  0.1920E+00
      1.815  0.5297E-01  0.1970E+00
      1.909  0.3622E-01  0.2004E+00
      2.003  0.1615E-01  0.2019E+00
      2.098  0.4689E-02  0.2024E+00
      2.192  0.8917E-03  0.2025E+00
      2.286  0.1728E-03  0.2025E+00
      2.380  0.5129E-03  0.2025E+00
      2.474  0.2590E-02  0.2028E+00
      2.569  0.8676E-02  0.2036E+00
      2.663  0.1909E-01  0.2054E+00
      2.757  0.2846E-01  0.2081E+00
      2.851  0.3266E-01  0.2111E+00
      2.945  0.3926E-01  0.2148E+00
      3.040  0.5617E-01  0.2201E+00
      3.134  0.7274E-01  0.2270E+00
      3.228  0.7096E-01  0.2337E+00
      3.322  0.5025E-01  0.2384E+00
      3.417  0.2570E-01  0.2408E+00
      3.511  0.9365E-02  0.2417E+00
      3.605  0.2376E-02  0.2419E+00
      3.699  0.4099E-03  0.2420E+00
      3.793  0.4729E-04  0.2420E+00
      3.888  0.5762E-05  0.2420E+00
      3.982  0.3384E-04  0.2420E+00
      4.076  0.3378E-03  0.2420E+00
      4.170  0.2206E-02  0.2422E+00
      4.264  0.9396E-02  0.2431E+00
      4.359  0.2627E-01  0.2456E+00
      4.453  0.4894E-01  0.2502E+00
      4.547  0.6295E-01  0.2561E+00
      4.641  0.6029E-01  0.2618E+00
      4.736  0.4749E-01  0.2663E+00
      4.830  0.3174E-01  0.2693E+00
      4.924  0.1669E-01  0.2708E+00
      5.018  0.6341E-02  0.2714E+00
      5.112  0.2334E-02  0.2717E+00
      5.207  0.5269E-02  0.2722E+00
      5.301  0.2246E-01  0.2743E+00
      5.395  0.6768E-01  0.2806E+00
      5.489  0.1390E+00  0.2937E+00
      5.583  0.1964E+00  0.3122E+00
      5.678  0.1923E+00  0.3304E+00
      5.772  0.1303E+00  0.3426E+00
      5.866  0.6074E-01  0.3484E+00
      5.960  0.1925E-01  0.3502E+00
      6.054  0.4240E-02  0.3506E+00
      6.149  0.1710E-02  0.3507E+00
      6.243  0.5728E-02  0.3513E+00
      6.337  0.1872E-01  0.3530E+00
      6.431  0.4156E-01  0.3570E+00
      6.526  0.6694E-01  0.3633E+00
      6.620  0.9199E-01  0.3719E+00
      6.714  0.1241E+00  0.3836E+00
      6.808  0.1539E+00  0.3981E+00
      6.902  0.1600E+00  0.4132E+00
      6.997  0.1498E+00  0.4273E+00
      7.091  0.1367E+00  0.4402E+00
      7.185  0.1083E+00  0.4504E+00
      7.279  0.6460E-01  0.4565E+00
      7.373  0.3048E-01  0.4593E+00
      7.468  0.1750E-01  0.4610E+00
      7.562  0.1477E-01  0.4624E+00
      7.656  0.1128E-01  0.4635E+00
      7.750  0.7275E-02  0.4641E+00
      7.845  0.9424E-02  0.4650E+00
      7.939  0.2482E-01  0.4674E+00
      8.033  0.5623E-01  0.4727E+00
      8.127  0.9675E-01  0.4818E+00
      8.221  0.1298E+00  0.4940E+00
      8.316  0.1342E+00  0.5067E+00
      8.410  0.1014E+00  0.5162E+00
      8.504  0.5315E-01  0.5212E+00
      8.598  0.1870E-01  0.5230E+00
      8.692  0.4379E-02  0.5234E+00
      8.787  0.1083E-02  0.5235E+00
      8.881  0.3098E-02  0.5238E+00
      8.975  0.1414E-01  0.5251E+00
      9.069  0.4287E-01  0.5292E+00
      9.163  0.8475E-01  0.5371E+00
      9.258  0.1092E+00  0.5474E+00
      9.352  0.9177E-01  0.5561E+00
      9.446  0.5028E-01  0.5608E+00
      9.540  0.1798E-01  0.5625E+00
      9.635  0.4507E-02  0.5629E+00
      9.729  0.3133E-02  0.5632E+00
      9.823  0.1229E-01  0.5644E+00
      9.917  0.3903E-01  0.5681E+00
     10.011  0.8194E-01  0.5758E+00
     10.106  0.1158E+00  0.5867E+00
     10.200  0.1175E+00  0.5978E+00
     10.294  0.9778E-01  0.6070E+00
     10.388  0.7572E-01  0.6141E+00
     10.482  0.5427E-01  0.6192E+00
     10.577  0.4277E-01  0.6232E+00
     10.671  0.5965E-01  0.6289E+00
     10.765  0.9936E-01  0.6382E+00
     10.859  0.1224E+00  0.6498E+00
     10.954  0.1005E+00  0.6592E+00
     11.048  0.5435E-01  0.6643E+00
     11.142  0.1935E-01  0.6662E+00
     11.236  0.4547E-02  0.6666E+00
     11.330  0.7690E-03  0.6667E+00
     11.425  0.6586E-03  0.6667E+00
     11.519  0.3416E-02  0.6670E+00
     11.613  0.1298E-01  0.6683E+00
     11.707  0.3284E-01  0.6714E+00
     11.801  0.5784E-01  0.6768E+00
     11.896  0.7973E-01  0.6843E+00
     11.990  0.1009E+00  0.6938E+00
     12.084  0.1183E+00  0.7050E+00
     12.178  0.1097E+00  0.7153E+00
     12.273  0.7125E-01  0.7220E+00
     12.367  0.3084E-01  0.7249E+00
     12.461  0.8752E-02  0.7258E+00
     12.555  0.1620E-02  0.7259E+00
     12.649  0.1950E-03  0.7259E+00
     12.744  0.1526E-04  0.7259E+00
     12.838  0.7779E-06  0.7259E+00
     12.932  0.1515E-06  0.7259E+00
     13.026  0.3148E-05  0.7259E+00
     13.120  0.5097E-04  0.7259E+00
     13.215  0.5359E-03  0.7260E+00
     13.309  0.3662E-02  0.7263E+00
     13.403  0.1628E-01  0.7279E+00
     13.497  0.4714E-01  0.7323E+00
     13.591  0.8895E-01  0.7407E+00
     13.686  0.1094E+00  0.7510E+00
     13.780  0.8797E-01  0.7593E+00
     13.874  0.4744E-01  0.7637E+00
     13.968  0.2285E-01  0.7659E+00
     14.063  0.2542E-01  0.7683E+00
     14.157  0.4515E-01  0.7726E+00
     14.251  0.6504E-01  0.7787E+00
     14.345  0.8070E-01  0.7863E+00
     14.439  0.1034E+00  0.7960E+00
     14.534  0.1284E+00  0.8081E+00
     14.628  0.1326E+00  0.8206E+00
     14.722  0.1114E+00  0.8311E+00
     14.816  0.8047E-01  0.8387E+00
     14.910  0.5628E-01  0.8440E+00
     15.005  0.5033E-01  0.8487E+00
     15.099  0.5656E-01  0.8541E+00
     15.193  0.5479E-01  0.8592E+00
     15.287  0.4111E-01  0.8631E+00
     15.382  0.3206E-01  0.8661E+00
     15.476  0.3719E-01  0.8696E+00
     15.570  0.5064E-01  0.8744E+00
     15.664  0.6293E-01  0.8803E+00
     15.758  0.6484E-01  0.8864E+00
     15.853  0.5601E-01  0.8917E+00
     15.947  0.5596E-01  0.8970E+00
     16.041  0.8037E-01  0.9045E+00
     16.135  0.1077E+00  0.9147E+00
     16.229  0.1014E+00  0.9242E+00
     16.324  0.6340E-01  0.9302E+00
     16.418  0.2783E-01  0.9328E+00
     16.512  0.1538E-01  0.9343E+00
     16.606  0.2656E-01  0.9368E+00
     16.700  0.5994E-01  0.9424E+00
     16.795  0.1096E+00  0.9528E+00
     16.889  0.1512E+00  0.9670E+00
     16.983  0.1592E+00  0.9820E+00
     17.077  0.1370E+00  0.9949E+00
     17.172  0.1052E+00  0.1005E+01
     17.266  0.7193E-01  0.1012E+01
     17.360  0.3947E-01  0.1015E+01
     17.454  0.1567E-01  0.1017E+01
     17.548  0.4280E-02  0.1017E+01
     17.643  0.1134E-02  0.1017E+01
     17.737  0.2478E-02  0.1018E+01
     17.831  0.1003E-01  0.1018E+01
     17.925  0.2776E-01  0.1021E+01
     18.019  0.5163E-01  0.1026E+01
     18.114  0.6678E-01  0.1032E+01
     18.208  0.6361E-01  0.1038E+01
     18.302  0.4729E-01  0.1043E+01
     18.396  0.2771E-01  0.1045E+01
     18.491  0.1219E-01  0.1046E+01
     18.585  0.3785E-02  0.1047E+01
     18.679  0.7950E-03  0.1047E+01
     18.773  0.1104E-03  0.1047E+01
     18.867  0.1004E-04  0.1047E+01
     18.962  0.6174E-06  0.1047E+01
     19.056  0.6758E-06  0.1047E+01
     19.150  0.1197E-04  0.1047E+01
     19.244  0.1425E-03  0.1047E+01
     19.338  0.1102E-02  0.1047E+01
     19.433  0.5543E-02  0.1048E+01
     19.527  0.1815E-01  0.1049E+01
     19.621  0.3872E-01  0.1053E+01
     19.715  0.5385E-01  0.1058E+01
     19.809  0.4884E-01  0.1063E+01
     19.904  0.2888E-01  0.1065E+01
     19.998  0.1113E-01  0.1066E+01
     20.092  0.2793E-02  0.1067E+01
     20.186  0.4561E-03  0.1067E+01
     20.281  0.4844E-04  0.1067E+01
     20.375  0.3340E-05  0.1067E+01
     20.469  0.1494E-06  0.1067E+01
     20.563  0.4332E-08  0.1067E+01
     20.657  0.8128E-10  0.1067E+01
     20.752  0.9863E-12  0.1067E+01
     20.846  0.7728E-14  0.1067E+01
     20.940  0.4656E-16  0.1067E+01
     21.034  0.0000E+00  0.1067E+01
     21.128  0.0000E+00  0.1067E+01
     21.223  0.0000E+00  0.1067E+01
     21.317  0.0000E+00  0.1067E+01
     21.411  0.0000E+00  0.1067E+01
     21.505  0.0000E+00  0.1067E+01
     21.600  0.0000E+00  0.1067E+01
     21.694  0.0000E+00  0.1067E+01
