unknown system                          
   1.00000000000000     
    -2.450000    2.450000    1.274000
     2.450000   -2.450000    1.274000
     2.450000    2.450000   -1.274000
   Si
     2
Direct
  0.250000  0.750000  0.500000
  0.000000  0.000000  0.000000
 
   32   32   32
 -5.2464     -4.0749     -.93075      3.2318      7.2576      10.206      11.620      11.573      10.530      9.1082    
  7.7162      6.4920      5.5014      4.7603      4.2554      3.9643      3.8695      3.9643      4.2554      4.7603    
  5.5014      6.4920      7.7162      9.1082      10.530      11.573      11.620      10.206      7.2577      3.2318    
 -.93076     -4.0749     -4.0749     -4.7041     -3.0614     0.33310      4.4577      8.1928      10.710      11.690    
  11.318      10.119      8.6880      7.3368      6.1761      5.2567      4.5848      4.1433      3.9102      3.8698    
  4.0181      4.3643      4.9279      5.7306      6.7810      8.0533      9.4680      10.855      11.736      11.512    
  9.7955      6.6249      2.5688     -1.3730     -.93076     -3.0614     -3.1515     -1.1741      2.2399      6.0639    
  9.2751      11.198      11.663      10.958      9.6372      8.2247      6.9312      5.8466      5.0066      4.4087    
  4.0330      3.8581      3.8705      4.0692      4.4656      5.0805      5.9344      7.0304      8.3333      9.7529    
  11.087      11.828      11.421      9.5657      6.4015      2.5688      3.2318     0.33310     -1.1741     -.79925    
  1.3316      4.5275      7.8189      10.330      11.563      11.496      10.495      9.1094      7.7363      6.5154    
  5.5167      4.7611      4.2388      3.9282      3.8094      3.8712      4.1151      4.5547      5.2114      6.1035    
  7.2287      8.5436      9.9502      11.226      11.868      11.386      9.5657      6.6249      7.2577      4.4577    
  2.2399      1.3316      2.0428      4.1293      6.8956      9.4832      11.197      11.723      11.169      9.9491    
  8.5568      7.2420      6.1061      5.1991      4.5291      4.0811      3.8328      3.7658      3.8715      4.1538    
  4.6278      5.3148      6.2303      7.3666      8.6740      10.051      11.272      11.868      11.421      9.7955    
  10.206      8.1928      6.0639      4.5275      4.1293      5.0183      6.8769      9.0573      10.851      11.758    
  11.636      10.695      9.3606      8.0012      6.7613      5.7187      4.9052      4.3190      3.9411      3.7498    
  3.7285      3.8712      4.1837      4.6820      5.3863      6.3088      7.4373      8.7183      10.051      11.226    
  11.828      11.512      11.620      10.710      9.2751      7.8189      6.8956      6.8769      7.7840      9.2733    
  10.786      11.785      11.959      11.313      10.122      8.7680      7.4651      6.3128      5.3673      4.6454    
  4.1377      3.8233      3.6818      3.6989      3.8705      4.2039      4.7153      5.4228      6.3354      7.4373    
  8.6740      9.9502      11.087      11.736      11.573      11.690      11.198      10.330      9.4832      9.0573    
  9.2734      10.065      11.104      11.949      12.235      11.818      10.813      9.5192      8.1986      6.9710    
  5.9137      5.0643      4.4280      3.9907      3.7316      3.6314      3.6781      3.8697      4.2141      4.7265    
  5.4228      6.3088      7.3666      8.5436      9.7529      10.855      10.530      11.318      11.663      11.563    
  11.197      10.851      10.786      11.104      11.692      12.269      12.520      12.238      11.414      10.231    
  8.9401      7.6790      6.5393      5.5783      4.8192      4.2595      3.8827      3.6686      3.6002      3.6675    
  3.8694      4.2141      4.7153      5.3863      6.2303      7.2287      8.3333      9.4680      9.1082      10.119    
  10.958      11.496      11.723      11.758      11.785      11.949      12.269      12.620      12.787      12.575    
  11.910      10.875      9.6630      8.4168      7.2337      6.1868      5.3179      4.6395      4.1447      3.8166    
  3.6367      3.5897      3.6675      3.8697      4.2039      4.6820      5.3148      6.1035      7.0304      8.0533    
  7.7162      8.6880      9.6372      10.495      11.169      11.636      11.959      12.235      12.520      12.787    
  12.919      12.775      12.266      11.409      10.332      9.1558      7.9784      6.8828      5.9267      5.1402    
  4.5299      4.0866      3.7944      3.6367      3.6002      3.6781      3.8705      4.1837      4.6278      5.2114    
  5.9344      6.7810      6.4920      7.3368      8.2247      9.1094      9.9491      10.695      11.313      11.818    
  12.238      12.575      12.775      12.751      12.425      11.785      10.900      9.8562      8.7438      7.6486    
  6.6410      5.7673      5.0503      4.4931      4.0866      3.8166      3.6686      3.6314      3.6989      3.8712    
  4.1538      4.5547      5.0805      5.7306      5.5014      6.1761      6.9312      7.7363      8.5568      9.3606    
  10.122      10.813      11.414      11.910      12.266      12.425      12.328      11.950      11.313      10.467    
  9.4871      8.4539      7.4441      6.5178      5.7137      5.0503      4.5299      4.1447      3.8827      3.7316    
  3.6818      3.7285      3.8715      4.1151      4.4656      4.9279      4.7603      5.2567      5.8466      6.5154    
  7.2420      8.0012      8.7680      9.5192      10.231      10.875      11.409      11.785      11.950      11.866    
  11.520      10.933      10.155      9.2536      8.3044      7.3749      6.5178      5.7673      5.1402      4.6395    
  4.2595      3.9907      3.8233      3.7498      3.7658      3.8712      4.0692      4.3643      4.2554      4.5848    
  5.0066      5.5167      6.1061      6.7613      7.4651      8.1986      8.9401      9.6630      10.332      10.900    
  11.313      11.520      11.487      11.202      10.688      9.9909      9.1738      8.3044      7.4441      6.6410    
  5.9267      5.3179      4.8192      4.4280      4.1377      3.9411      3.8328      3.8094      3.8705      4.0181    
  3.9643      4.1433      4.4087      4.7611      5.1991      5.7187      6.3128      6.9710      7.6790      8.4168    
  9.1558      9.8562      10.467      10.933      11.202      11.239      11.034      10.604      9.9909      9.2536    
  8.4539      7.6486      6.8828      6.1868      5.5783      5.0643      4.6454      4.3190      4.0811      3.9282    
  3.8581      3.8698      3.8695      3.9103      4.0330      4.2388      4.5291      4.9052      5.3673      5.9137    
  6.5393      7.2337      7.9784      8.7438      9.4871      10.155      10.688      11.034      11.153      11.034    
  10.688      10.155      9.4871      8.7438      7.9784      7.2337      6.5393      5.9137      5.3673      4.9052    
  4.5291      4.2388      4.0330      3.9102      3.9643      3.8698      3.8581      3.9282      4.0811      4.3190    
  4.6454      5.0643      5.5783      6.1868      6.8827      7.6486      8.4539      9.2536      9.9909      10.604    
  11.034      11.239      11.202      10.933      10.467      9.8562      9.1558      8.4168      7.6790      6.9710    
  6.3128      5.7187      5.1991      4.7611      4.4087      4.1433      4.2554      4.0181      3.8705      3.8094    
  3.8328      3.9411      4.1377      4.4280      4.8192      5.3179      5.9267      6.6410      7.4441      8.3044    
  9.1738      9.9909      10.688      11.202      11.487      11.520      11.313      10.900      10.332      9.6630    
  8.9401      8.1986      7.4651      6.7613      6.1061      5.5167      5.0066      4.5848      4.7603      4.3643    
  4.0691      3.8712      3.7658      3.7498      3.8234      3.9907      4.2595      4.6395      5.1402      5.7673    
  6.5178      7.3749      8.3044      9.2536      10.155      10.933      11.520      11.866      11.950      11.785    
  11.409      10.875      10.231      9.5192      8.7680      8.0012      7.2420      6.5154      5.8466      5.2567    
  5.5014      4.9279      4.4656      4.1151      3.8715      3.7285      3.6818      3.7316      3.8827      4.1447    
  4.5299      5.0503      5.7137      6.5178      7.4441      8.4539      9.4871      10.467      11.313      11.950    
  12.328      12.425      12.266      11.910      11.414      10.813      10.122      9.3606      8.5568      7.7363    
  6.9312      6.1761      6.4920      5.7306      5.0805      4.5547      4.1538      3.8712      3.6988      3.6314    
  3.6686      3.8166      4.0866      4.4931      5.0503      5.7673      6.6410      7.6486      8.7438      9.8562    
  10.900      11.785      12.425      12.751      12.775      12.575      12.238      11.818      11.313      10.695    
  9.9491      9.1094      8.2247      7.3368      7.7162      6.7810      5.9344      5.2114      4.6278      4.1837    
  3.8705      3.6781      3.6002      3.6367      3.7944      4.0866      4.5299      5.1402      5.9267      6.8827    
  7.9784      9.1558      10.332      11.409      12.266      12.775      12.919      12.787      12.520      12.235    
  11.959      11.636      11.169      10.495      9.6372      8.6880      9.1082      8.0533      7.0304      6.1035    
  5.3148      4.6820      4.2039      3.8697      3.6675      3.5897      3.6367      3.8166      4.1447      4.6395    
  5.3179      6.1868      7.2337      8.4168      9.6630      10.875      11.910      12.575      12.787      12.620    
  12.269      11.949      11.785      11.758      11.723      11.496      10.958      10.119      10.530      9.4680    
  8.3334      7.2287      6.2303      5.3863      4.7153      4.2141      3.8694      3.6675      3.6002      3.6686    
  3.8827      4.2595      4.8192      5.5783      6.5393      7.6790      8.9401      10.231      11.414      12.238    
  12.520      12.269      11.692      11.104      10.786      10.851      11.197      11.563      11.663      11.318    
  11.573      10.855      9.7529      8.5437      7.3666      6.3088      5.4228      4.7265      4.2141      3.8697    
  3.6781      3.6314      3.7316      3.9907      4.4280      5.0643      5.9137      6.9710      8.1986      9.5192    
  10.813      11.818      12.235      11.949      11.104      10.065      9.2733      9.0573      9.4832      10.330    
  11.198      11.690      11.620      11.736      11.087      9.9502      8.6741      7.4373      6.3354      5.4228    
  4.7153      4.2039      3.8705      3.6988      3.6818      3.8234      4.1377      4.6454      5.3673      6.3128    
  7.4651      8.7680      10.122      11.313      11.959      11.785      10.786      9.2734      7.7840      6.8769    
  6.8956      7.8189      9.2751      10.710      10.206      11.512      11.828      11.226      10.051      8.7183    
  7.4373      6.3088      5.3863      4.6820      4.1837      3.8712      3.7285      3.7498      3.9411      4.3190    
  4.9052      5.7187      6.7613      8.0012      9.3606      10.695      11.636      11.758      10.851      9.0573    
  6.8769      5.0183      4.1293      4.5275      6.0639      8.1928      7.2576      9.7955      11.421      11.868    
  11.272      10.051      8.6741      7.3666      6.2303      5.3148      4.6278      4.1538      3.8715      3.7658    
  3.8328      4.0811      4.5291      5.1991      6.1061      7.2420      8.5568      9.9491      11.169      11.723    
  11.197      9.4832      6.8956      4.1293      2.0428      1.3316      2.2399      4.4577      3.2318      6.6249    
  9.5657      11.386      11.868      11.226      9.9502      8.5437      7.2287      6.1035      5.2114      4.5547    
  4.1151      3.8712      3.8094      3.9282      4.2388      4.7611      5.5167      6.5154      7.7363      9.1094    
  10.495      11.496      11.563      10.330      7.8189      4.5275      1.3316     -.79925     -1.1741     0.33310    
 -.93075      2.5688      6.4014      9.5657      11.421      11.828      11.087      9.7529      8.3334      7.0304    
  5.9344      5.0805      4.4656      4.0691      3.8705      3.8581      4.0330      4.4087      5.0066      5.8466    
  6.9312      8.2247      9.6372      10.958      11.663      11.198      9.2751      6.0639      2.2399     -1.1741    
 -3.1515     -3.0614     -4.0749     -1.3730      2.5688      6.6249      9.7955      11.512      11.736      10.855    
  9.4680      8.0533      6.7810      5.7306      4.9279      4.3643      4.0181      3.8698      3.9103      4.1433    
  4.5848      5.2567      6.1761      7.3368      8.6880      10.119      11.318      11.690      10.710      8.1928    
  4.4577     0.33310     -3.0614     -4.7041     -4.0749     -3.2060     -.42834      3.4048      7.2068      10.055    
  11.463      11.456      10.451      9.0406      7.6430      6.4038      5.3933      4.6307      4.1036      3.7889    
  3.6675      3.7312      3.9853      4.4468      5.1387      6.0775      7.2539      8.6112      10.031      11.177    
  11.459      10.397      7.8605      4.2192     0.31763     -2.7602     -3.2061     -4.0750     -2.7603     0.31768    
  4.2193      7.8604      10.397      11.459      11.177      10.031      8.6111      7.2538      6.0775      5.1387    
  4.4468      3.9852      3.7312      3.6675      3.7889      4.1036      4.6307      5.3934      6.4038      7.6430    
  9.0406      10.451      11.456      11.463      10.055      7.2068      3.4049     -.42826     -.34636     -2.6716    
 -3.0614     -1.3974      1.7817      5.5046      8.7492      10.795      11.408      10.818      9.5504      8.1462    
  6.8450      5.7444      4.8859      4.2700      3.8770      3.6846      3.6781      3.8554      4.2274      4.8149    
  5.6400      6.7102      7.9970      9.4179      10.799      11.670      11.470      9.8576      6.9083      3.1905    
  3.6134     0.55398     -1.2305     -1.1742     0.69269      3.7539      7.0638      9.7155      11.145      11.259    
  10.376      9.0306      7.6625      6.4319      5.4169      4.6444      4.1067      3.7824      3.6504      3.6989    
  3.9282      4.3519      4.9918      5.8684      6.9838      8.3005      9.7273      11.067      11.834      11.519    
  9.8634      7.0240      7.5416      4.6129      2.1455     0.91907      1.3316      3.2272      5.9608      8.6671    
  10.595      11.353      10.982      9.8593      8.4915      7.1771      6.0295      5.1068      4.4223      3.9624    
  3.7046      3.6298      3.7285      4.0041      4.4720      5.1542      6.0687      7.2119      8.5393      9.9544    
  11.248      11.954      11.627      10.084      10.485      8.3789      6.0413      4.2068      3.4902      4.1293    
  5.8787      8.1142      10.095      11.249      11.356      10.570      9.2974      7.9516      6.7072      5.6518    
  4.8244      4.2270      3.8416      3.6458      3.6228      3.7657      4.0803      4.5830      5.2952      6.2316    
  7.3836      8.7015      10.087      11.338      12.029      11.783      11.953      10.991      9.4007      7.6916    
  6.4606      6.1553      6.8769      8.3320      9.9610      11.176      11.590      11.137      10.052      8.7282    
  7.4302      6.2697      5.3118      4.5790      4.0645      3.7478      3.6078      3.6297      3.8094      4.1540    
  4.6805      5.4086      6.3495      7.4901      8.7780      10.118      11.329      12.044      11.978      12.085    
  11.499      10.443      9.3332      8.6217      8.6025      9.2734      10.334      11.323      11.815      11.597    
  10.727      9.4845      8.1773      6.9475      5.8804      5.0209      4.3782      3.9395      3.6839      3.5917    
  3.6504      3.8580      4.2226      4.7606      5.4893      6.4164      7.5255      8.7642      10.044      11.215    
  10.991      11.809      12.120      11.906      11.345      10.753      10.445      10.584      11.104      11.733    
  12.122      12.006      11.317      10.201      8.9273      7.6691      6.5230      5.5533      4.7884      4.2279    
  3.8559      3.6518      3.5981      3.6845      3.9102      4.2837      4.8198      5.5334      6.4287      7.4875    
  8.6598      9.8658      9.5922      10.660      11.518      12.012      12.122      11.977      11.792      11.762    
  11.953      12.269      12.490      12.383      11.823      10.852      9.6564      8.4143      7.2274      6.1737    
  5.2997      4.6214      4.1325      3.8160      3.6528      3.6274      3.7312      3.9643      4.3347      4.8555    
  5.5386      6.3855      7.3775      8.4696      8.2023      9.2347      10.231      11.102      11.732      12.094    
  12.263      12.367      12.503      12.677      12.787      12.676      12.221      11.403      10.332      9.1561    
  7.9747      6.8732      5.9133      5.1280      4.5248      4.0948      3.8213      3.6871      3.6787      3.7889    
  4.0181      4.3733      4.8656      5.5041      6.2885      7.2009      6.9660      7.8705      8.8090      9.7286    
  10.577      11.285      11.815      12.196      12.482      12.704      12.830      12.775      12.448      11.808    
  10.910      9.8564      8.7356      7.6337      6.6229      5.7516      5.0434      4.5014      4.1159      3.8718    
  3.7539      3.7505      3.8555      4.0692      4.3975      4.8493      5.4314      6.1422      5.9536      6.6841    
  7.4894      8.3336      9.1761      9.9787      10.708      11.329      11.832      12.221      12.482      12.570    
  12.425      12.007      11.335      10.465      9.4685      8.4249      7.4110      6.4878      5.6944      5.0488    
  4.5522      4.1958      3.9665      3.8514      3.8404      3.9283      4.1151      4.4057      4.8068      5.3235    
  5.1856      5.7316      6.3680      7.0759      7.8291      8.5975      9.3516      10.066      10.718      11.280    
  11.725      12.014      12.101      11.950      11.552      10.926      10.120      9.2023      8.2462      7.3195    
  6.4745      5.7444      5.1445      4.6763      4.3327      4.1029      3.9765      3.9451      4.0042      4.1538    
  4.3975      4.7403      4.6528      5.0242      5.4862      6.0318      6.6481      7.3172      8.0179      8.7281    
  9.4255      10.085      10.676      11.160      11.489      11.619      11.520      11.184      10.632      9.9098    
  9.0813      8.2130      7.3653      6.5846      5.9010      5.3289      4.8712      4.5233      4.2774      4.1253    
  4.0608      4.0804      4.1837      4.3734      4.3347      4.5484      4.8465      5.2283      5.6899      6.2237    
  6.8191      7.4626      8.1377      8.8244      9.4966      10.119      10.648      11.033      11.228      11.202    
  10.949      10.486      9.8567      9.1177      8.3300      7.5484      6.8158      6.1605      5.5975      5.1321    
  4.7626      4.4845      4.2929      4.1836      4.1541      4.2040      4.2141      4.2837      4.4322      4.6604    
  4.9687      5.3561      5.8198      6.3553      6.9551      7.6075      8.2945      8.9892      9.6535      10.239    
  10.694      10.970      11.034      10.874      10.507      9.9687      9.3122      8.5930      7.8625      7.1609    
  6.5157      5.9433      5.4516      5.0432      4.7177      4.4735      4.3089      4.2226      4.2837      4.2142    
  4.2227      4.3089      4.4734      4.7177      5.0432      5.4516      5.9433      6.5157      7.1609      7.8625    
  8.5930      9.3121      9.9687      10.507      10.874      11.034      10.970      10.694      10.239      9.6535    
  8.9892      8.2945      7.6075      6.9550      6.3552      5.8198      5.3561      4.9687      4.6604      4.4321    
  4.5484      4.3347      4.2039      4.1540      4.1836      4.2929      4.4845      4.7625      5.1321      5.5976    
  6.1605      6.8158      7.5484      8.3300      9.1177      9.8567      10.486      10.949      11.202      11.228    
  11.033      10.648      10.119      9.4966      8.8244      8.1377      7.4626      6.8191      6.2237      5.6898    
  5.2283      4.8466      5.0242      4.6527      4.3733      4.1837      4.0804      4.0608      4.1253      4.2774    
  4.5233      4.8712      5.3289      5.9009      6.5846      7.3653      8.2130      9.0813      9.9098      10.632    
  11.184      11.520      11.619      11.489      11.160      10.676      10.085      9.4255      8.7282      8.0179    
  7.3171      6.6481      6.0318      5.4862      5.7315      5.1857      4.7403      4.3975      4.1538      4.0041    
  3.9450      3.9765      4.1030      4.3327      4.6763      5.1445      5.7444      6.4744      7.3195      8.2462    
  9.2023      10.120      10.926      11.552      11.950      12.101      12.013      11.725      11.280      10.718    
  10.066      9.3516      8.5975      7.8292      7.0760      6.3679      6.6840      5.9536      5.3236      4.8069    
  4.4056      4.1150      3.9282      3.8404      3.8513      3.9665      4.1958      4.5522      5.0488      5.6944    
  6.4878      7.4110      8.4249      9.4685      10.465      11.335      12.007      12.425      12.570      12.482    
  12.221      11.832      11.329      10.708      9.9788      9.1762      8.3336      7.4893      7.8705      6.9660    
  6.1422      5.4313      4.8492      4.3974      4.0691      3.8555      3.7505      3.7539      3.8718      4.1159    
  4.5014      5.0434      5.7516      6.6229      7.6337      8.7356      9.8564      10.910      11.808      12.448    
  12.775      12.830      12.704      12.482      12.196      11.815      11.285      10.577      9.7286      8.8090    
  9.2348      8.2023      7.2009      6.2884      5.5041      4.8656      4.3733      4.0180      3.7889      3.6787    
  3.6871      3.8213      4.0948      4.5248      5.1280      5.9133      6.8732      7.9747      9.1561      10.332    
  11.403      12.221      12.676      12.787      12.677      12.503      12.367      12.263      12.094      11.732    
  11.102      10.231      10.660      9.5922      8.4696      7.3775      6.3855      5.5385      4.8555      4.3347    
  3.9643      3.7312      3.6274      3.6528      3.8160      4.1325      4.6214      5.2997      6.1737      7.2274    
  8.4143      9.6564      10.852      11.823      12.383      12.489      12.269      11.953      11.761      11.792    
  11.977      12.122      12.012      11.518      11.808      10.991      9.8659      8.6599      7.4874      6.4287    
  5.5334      4.8198      4.2837      3.9102      3.6846      3.5982      3.6518      3.8559      4.2279      4.7884    
  5.5533      6.5230      7.6691      8.9273      10.201      11.317      12.006      12.122      11.733      11.104    
  10.584      10.445      10.753      11.345      11.906      12.120      12.085      11.978      11.215      10.044    
  8.7642      7.5255      6.4164      5.4893      4.7606      4.2226      3.8580      3.6505      3.5917      3.6839    
  3.9396      4.3782      5.0208      5.8804      6.9475      8.1773      9.4845      10.727      11.597      11.815    
  11.323      10.334      9.2733      8.6024      8.6218      9.3332      10.443      11.499      10.991      11.953    
  12.044      11.329      10.118      8.7781      7.4901      6.3495      5.4086      4.6805      4.1540      3.8094    
  3.6298      3.6078      3.7478      4.0645      4.5790      5.3118      6.2697      7.4302      8.7281      10.052    
  11.137      11.590      11.176      9.9609      8.3321      6.8770      6.1553      6.4606      7.6915      9.4007    
  8.3789      10.485      11.783      12.029      11.338      10.087      8.7015      7.3836      6.2317      5.2952    
  4.5830      4.0803      3.7658      3.6228      3.6458      3.8415      4.2270      4.8244      5.6517      6.7072    
  7.9516      9.2974      10.570      11.356      11.249      10.095      8.1143      5.8788      4.1293      3.4902    
  4.2068      6.0414      4.6128      7.5415      10.084      11.627      11.954      11.248      9.9543      8.5393    
  7.2119      6.0687      5.1542      4.4720      4.0042      3.7285      3.6297      3.7046      3.9624      4.4223    
  5.1068      6.0294      7.1771      8.4916      9.8593      10.982      11.353      10.595      8.6671      5.9607    
  3.2272      1.3317     0.91925      2.1456     0.55395      3.6134      7.0241      9.8634      11.519      11.834    
  11.067      9.7273      8.3004      6.9837      5.8684      4.9918      4.3519      3.9282      3.6989      3.6505    
  3.7824      4.1067      4.6443      5.4169      6.4319      7.6625      9.0305      10.376      11.259      11.145    
  9.7154      7.0637      3.7539     0.69285     -1.1740     -1.2305     -2.6715     -.34626      3.1905      6.9082    
  9.8576      11.470      11.670      10.799      9.4179      7.9969      6.7103      5.6400      4.8148      4.2274    
  3.8555      3.6782      3.6845      3.8769      4.2700      4.8860      5.7444      6.8450      8.1462      9.5504    
  10.818      11.408      10.795      8.7492      5.5047      1.7818     -1.3974     -3.0614     -.93065     -.34631    
  1.8868      5.0589      8.2294      10.580      11.668      11.501      10.449      9.0437      7.6561      6.4204    
  5.4057      4.6319      4.0877      3.7505      3.6002      3.6273      3.8354      4.2399      4.8633      5.7243    
  6.8206      8.1088      9.4914      10.741      11.352      10.851      9.0509      6.1985      2.9768     0.31770    
 -.42832     -1.3731     -.42830      2.0947      5.3954      8.5118      10.672      11.519      11.150      9.9942    
  8.5902      7.2446      6.0722      5.1297      4.4281      3.9521      3.6787      3.5897      3.6786      3.9521    
  4.4282      5.1297      6.0721      7.2446      8.5902      9.9942      11.150      11.519      10.672      8.5118    
  5.3954      2.0946      1.8868     -.34633     -.93069     0.31770      2.9768      6.1985      9.0509      10.851    
  11.352      10.741      9.4914      8.1087      6.8206      5.7243      4.8633      4.2399      3.8354      3.6274    
  3.6002      3.7504      4.0877      4.6319      5.4057      6.4204      7.6561      9.0438      10.449      11.501    
  11.668      10.580      8.2294      5.0589      5.2533      2.3898     0.55398     0.33308      1.7818      4.3965    
  7.3298      9.7297      11.038      11.128      10.271      8.9599      7.6162      6.3992      5.3892      4.6157    
  4.0732      3.7411      3.5981      3.6313      3.8403      4.2373      4.8438      5.6811      6.7556      8.0386    
  9.4514      10.841      11.800      11.831      10.632      8.2733      8.6527      5.9569      3.5335      2.1455    
  2.2399      3.7539      6.1405      8.6020      10.408      11.148      10.817      9.7471      8.4180      7.1286    
  5.9946      5.0777      4.3945      3.9332      3.6721      3.5917      3.6818      3.9450      4.3957      5.0559    
  5.9449      7.0634      8.3753      9.7948      11.156      12.049      12.022      10.847      11.204      9.3139    
  7.0665      5.1546      4.2069      4.5275      5.9608      7.9582      9.8154      10.953      11.114      10.402    
  9.1892      7.8814      6.6613      5.6195      4.7995      4.2063      3.8238      3.6301      3.6078      3.7497    
  4.0608      4.5570      5.2597      6.1855      7.3297      8.6497      10.056      11.382      12.239      12.236    
  12.441      11.646      10.152      8.4172      7.0257      6.4606      6.8956      8.1143      9.6073      10.796    
  11.264      10.902      9.8997      8.6288      7.3667      6.2291      5.2854      4.5626      4.0564      3.7478    
  3.6159      3.6459      3.8328      4.1836      4.7148      5.4467      6.3919      7.5409      8.8468      10.220    
  11.506      12.356      12.377      12.595      12.087      11.030      9.8119      8.8954      8.6218      9.0573    
  9.9609      10.895      11.425      11.296      10.522      9.3494      8.0881      6.8910      5.8461      5.0027    
  4.3738      3.9486      3.7072      3.6301      3.7046      3.9282      4.3089      4.8630      5.6083      6.5539    
  7.6858      8.9552      10.276      11.514      11.398      12.280      12.645      12.436      11.804      11.057    
  10.531      10.445      10.786      11.323      11.712      11.662      11.065      10.027      8.8055      7.5878    
  6.4718      5.5252      4.7799      4.2384      3.8861      3.7032      3.6721      3.7824      4.0329      4.4322    
  4.9952      5.7371      6.6631      7.7561      8.9677      10.219      10.048      11.156      12.047      12.547    
  12.611      12.353      11.993      11.758      11.761      11.949      12.121      12.039      11.545      10.644    
  9.4995      8.3003      7.1494      6.1253      5.2772      4.6237      4.1603      3.8707      3.7362      3.7412    
  3.8770      4.1433      4.5484      5.1055      5.8267      6.7135      7.7474      8.8827      8.7036      9.7728    
  10.795      11.674      12.275      12.559      12.595      12.526      12.481      12.503      12.520      12.383    
  11.951      11.177      10.144      9.0051      7.8605      6.7931      5.8650      5.1106      4.5391      4.1420    
  3.9033      3.8056      3.8355      3.9853      4.2553      4.6527      5.1887      5.8722      6.7022      7.6597    
  7.4973      8.4393      9.4047      10.335      11.171      11.829      12.265      12.509      12.635      12.701    
  12.704      12.575      12.221      11.585      10.700      9.6693      8.5792      7.5113      6.5359      5.7012    
  5.0311      4.5288      4.1846      3.9835      3.9100      3.9522      4.1036      4.3643      4.7403      5.2404    
  5.8711      6.6294      6.4985      7.2682      8.1027      8.9617      9.7993      10.572      11.239      11.759    
  12.131      12.375      12.501      12.482      12.266      11.808      11.116      10.247      9.2676      8.2519    