    2    2   15    1
  0.1529437E+02  0.3691622E-09  0.3691622E-09  0.3691622E-09  0.5000000E-15
  1.000000000000000E-004
  CAR 
 unknown system                          
      8      3      8
 
  0.2500000E+00  0.2500000E+00  0.2500000E+00  0.2500000E+00
    1        3.373550   1.000000
    2        3.373552   1.000000
    3        4.024987   1.000000
    4        4.024988   1.000000
    5       13.182892   0.000000
    6       13.182897   0.000000
    7       14.999697   0.000000
    8       14.999698   0.000000
 
 -0.2500000E+00  0.2500000E+00  0.2500000E+00  0.5000000E+00
    1       -3.165870   1.000000
    2        1.888603   1.000000
    3        3.615525   1.000000
    4        8.513912   0.500000
    5       12.846890   0.000000
    6       16.027403   0.000000
    7       17.212393   0.000000
    8       18.234153   0.000000
 
 -0.2500000E+00 -0.2500000E+00  0.2500000E+00  0.2500000E+00
    1        0.826676   1.000000
    2        5.730617   1.000000
    3        5.823868   1.000000
    4        7.251348   1.000000
    5        7.251350   1.000000
    6       11.524563   0.000000
    7       12.235813   0.000000
    8       12.235816   0.000000
