<?xml version="1.0" encoding="ISO-8859-1"?>
<modeling>
 <generator>
  <i name="program" type="string">vasp </i>
  <i name="version" type="string">5.4.4.18Apr17-6-g9f103f2a35  </i>
  <i name="subversion" type="string">(build Dec 09 2018 21:25:21) complex            parallel </i>
  <i name="platform" type="string">IFC18.0.1.163_CrayMPICH7.7.0_MKL18.0.1.163 </i>
  <i name="date" type="string">2019 03 19 </i>
  <i name="time" type="string">13:16:56 </i>
 </generator>
 <incar>
  <i type="string" name="PREC">normal</i>
  <i type="int" name="IBRION">     2</i>
  <i name="EDIFF">      0.00040000</i>
  <i name="EDIFFG">     -0.01000000</i>
  <i type="int" name="NSW">    15</i>
  <i type="int" name="ISIF">     2</i>
  <i name="ENCUT">    300.00000000</i>
  <i type="int" name="NBANDS">     8</i>
  <i type="logical" name="LREAL"> F  </i>
  <i type="int" name="ISMEAR">     0</i>
  <i name="SIGMA">      0.20000000</i>
  <v type="int" name="KPOINT_BSE">    -1     0     0     0</v>
 </incar>
 <structure name="primitive_cell" >
  <crystal>
   <varray name="basis" >
    <v>      -2.45000000       2.45000000       1.27400000 </v>
    <v>       2.45000000      -2.45000000       1.27400000 </v>
    <v>       2.45000000       2.45000000      -1.27400000 </v>
   </varray>
   <i name="volume">     30.58874000 </i>
   <varray name="rec_basis" >
    <v>       0.00000000       0.20408163       0.39246468 </v>
    <v>       0.20408163       0.00000000       0.39246468 </v>
    <v>       0.20408163       0.20408163      -0.00000000 </v>
   </varray>
  </crystal>
  <varray name="positions" >
   <v>       0.25000000      -0.25000000      -0.50000000 </v>
   <v>       0.00000000       0.00000000       0.00000000 </v>
  </varray>
 </structure>
 <varray name="primitive_index" >
  <v type="int" >        1 </v>
  <v type="int" >        2 </v>
 </varray>
 <kpoints>
  <generation param="Monkhorst-Pack">
   <v type="int" name="divisions">       2        2        2 </v>
   <v name="usershift">      0.00000000       0.00000000       0.00000000 </v>
   <v name="genvec1">      0.50000000       0.00000000      -0.00000000 </v>
   <v name="genvec2">      0.00000000       0.50000000      -0.00000000 </v>
   <v name="genvec3">      0.00000000      -0.00000000       0.50000000 </v>
   <v name="shift">      0.50000000       0.50000000       0.50000000 </v>
  </generation>
  <varray name="kpointlist" >
   <v>       0.25000000       0.25000000       0.25000000 </v>
   <v>      -0.25000000       0.25000000       0.25000000 </v>
   <v>      -0.25000000      -0.25000000       0.25000000 </v>
  </varray>
  <varray name="weights" >
   <v>       0.25000000 </v>
   <v>       0.50000000 </v>
   <v>       0.25000000 </v>
  </varray>
 </kpoints>
 <parameters>
  <separator name="general" >
   <i type="string" name="SYSTEM">unknown system</i>
   <i type="logical" name="LCOMPAT"> F  </i>
  </separator>
  <separator name="electronic" >
   <i type="string" name="PREC">normal</i>
   <i name="ENMAX">    300.00000000</i>
   <i name="ENAUG">    322.06900000</i>
   <i name="EDIFF">      0.00040000</i>
   <i type="int" name="IALGO">    38</i>
   <i type="int" name="IWAVPR">    11</i>
   <i type="int" name="NBANDS">     8</i>
   <i name="NELECT">      8.00000000</i>
   <i type="int" name="TURBO">     0</i>
   <i type="int" name="IRESTART">     0</i>
   <i type="int" name="NREBOOT">     0</i>
   <i type="int" name="NMIN">     0</i>
   <i name="EREF">      0.00000000</i>
   <separator name="electronic smearing" >
    <i type="int" name="ISMEAR">     0</i>
    <i name="SIGMA">      0.20000000</i>
    <i name="KSPACING">      0.50000000</i>
    <i type="logical" name="KGAMMA"> T  </i>
   </separator>
   <separator name="electronic projectors" >
    <i type="logical" name="LREAL"> F  </i>
    <v name="ROPT">      0.00000000</v>
    <i type="int" name="LMAXPAW">  -100</i>
    <i type="int" name="LMAXMIX">     2</i>
    <i type="logical" name="NLSPLINE"> F  </i>
   </separator>
   <separator name="electronic startup" >
    <i type="int" name="ISTART">     1</i>
    <i type="int" name="ICHARG">     0</i>
    <i type="int" name="INIWAV">     1</i>
   </separator>
   <separator name="electronic spin" >
    <i type="int" name="ISPIN">     1</i>
    <i type="logical" name="LNONCOLLINEAR"> F  </i>
    <v name="MAGMOM">      1.00000000      1.00000000</v>
    <i name="NUPDOWN">     -1.00000000</i>
    <i type="logical" name="LSORBIT"> F  </i>
    <v name="SAXIS">      0.00000000      0.00000000      1.00000000</v>
    <i type="logical" name="LSPIRAL"> F  </i>
    <v name="QSPIRAL">      0.00000000      0.00000000      0.00000000</v>
    <i type="logical" name="LZEROZ"> F  </i>
   </separator>
   <separator name="electronic exchange-correlation" >
    <i type="logical" name="LASPH"> F  </i>
    <i type="logical" name="LMETAGGA"> F  </i>
   </separator>
   <separator name="electronic convergence" >
    <i type="int" name="NELM">    60</i>
    <i type="int" name="NELMDL">     0</i>
    <i type="int" name="NELMIN">     2</i>
    <i name="ENINI">    300.00000000</i>
    <separator name="electronic convergence detail" >
     <i type="logical" name="LDIAG"> T  </i>
     <i type="logical" name="LSUBROT"> F  </i>
     <i name="WEIMIN">      0.00100000</i>
     <i name="EBREAK">      0.00001250</i>
     <i name="DEPER">      0.30000000</i>
     <i type="int" name="NRMM">     4</i>
     <i name="TIME">      0.40000000</i>
    </separator>
   </separator>
   <separator name="electronic mixer" >
    <i name="AMIX">      0.40000000</i>
    <i name="BMIX">      1.00000000</i>
    <i name="AMIN">      0.10000000</i>
    <i name="AMIX_MAG">      1.60000000</i>
    <i name="BMIX_MAG">      1.00000000</i>
    <separator name="electronic mixer details" >
     <i type="int" name="IMIX">     4</i>
     <i type="logical" name="MIXFIRST"> F  </i>
     <i type="int" name="MAXMIX">   -45</i>
     <i name="WC">    100.00000000</i>
     <i type="int" name="INIMIX">     1</i>
     <i type="int" name="MIXPRE">     1</i>
     <i type="int" name="MREMOVE">     5</i>
    </separator>
   </separator>
   <separator name="electronic dipolcorrection" >
    <i type="logical" name="LDIPOL"> F  </i>
    <i type="logical" name="LMONO"> F  </i>
    <i type="int" name="IDIPOL">     0</i>
    <i name="EPSILON">      1.00000000</i>
    <v name="DIPOL">   -100.00000000   -100.00000000   -100.00000000</v>
    <i name="EFIELD">      0.00000000</i>
   </separator>
  </separator>
  <separator name="grids" >
   <i type="int" name="NGX">    16</i>
   <i type="int" name="NGY">    16</i>
   <i type="int" name="NGZ">    16</i>
   <i type="int" name="NGXF">    32</i>
   <i type="int" name="NGYF">    32</i>
   <i type="int" name="NGZF">    32</i>
   <i type="logical" name="ADDGRID"> F  </i>
  </separator>
  <separator name="ionic" >
   <i type="int" name="NSW">    15</i>
   <i type="int" name="IBRION">     2</i>
   <i type="int" name="MDALGO">     0</i>
   <i type="int" name="ISIF">     2</i>
   <i name="PSTRESS">      0.00000000</i>
   <i name="EDIFFG">     -0.01000000</i>
   <i type="int" name="NFREE">     1</i>
   <i name="POTIM">      0.50000000</i>
   <i name="SMASS">     -3.00000000</i>
   <i name="SCALEE">      1.00000000</i>
  </separator>
  <separator name="ionic md" >
   <i name="TEBEG">      0.00010000</i>
   <i name="TEEND">      0.00010000</i>
   <i type="int" name="NBLOCK">     1</i>
   <i type="int" name="KBLOCK">    15</i>
   <i type="int" name="NPACO">   256</i>
   <i name="APACO">     16.00000000</i>
  </separator>
  <separator name="symmetry" >
   <i type="int" name="ISYM">     2</i>
   <i name="SYMPREC">      0.00001000</i>
  </separator>
  <separator name="dos" >
   <i type="int" name="LORBIT">     0</i>
   <v name="RWIGS">     -1.00000000</v>
   <i type="int" name="NEDOS">   301</i>
   <i name="EMIN">     10.00000000</i>
   <i name="EMAX">    -10.00000000</i>
   <i name="EFERMI">      0.00000000</i>
  </separator>
  <separator name="writing" >
   <i type="int" name="NWRITE">     2</i>
   <i type="logical" name="LWAVE"> T  </i>
   <i type="logical" name="LDOWNSAMPLE"> F  </i>
   <i type="logical" name="LCHARG"> T  </i>
   <i type="logical" name="LPARD"> F  </i>
   <i type="logical" name="LVTOT"> F  </i>
   <i type="logical" name="LVHAR"> F  </i>
   <i type="logical" name="LELF"> F  </i>
   <i type="logical" name="LOPTICS"> F  </i>
   <v name="STM">      0.00000000      0.00000000      0.00000000      0.00000000      0.00000000      0.00000000      0.00000000</v>
  </separator>
  <separator name="performance" >
   <i type="int" name="NPAR">     8</i>
   <i type="int" name="NSIM">     4</i>
   <i type="int" name="NBLK">    -1</i>
   <i type="logical" name="LPLANE"> T  </i>
   <i type="logical" name="LSCALAPACK"> T  </i>
   <i type="logical" name="LSCAAWARE"> F  </i>
   <i type="logical" name="LSCALU"> F  </i>
   <i type="logical" name="LASYNC"> F  </i>
   <i type="logical" name="LORBITALREAL"> F  </i>
  </separator>
  <separator name="miscellaneous" >
   <i type="int" name="IDIOT">     3</i>
   <i type="int" name="ISPECIAL">     0</i>
   <i type="logical" name="LMUSIC"> F  </i>
   <v name="POMASS">     28.08500000</v>
   <v name="DARWINR">      0.00000000</v>
   <v name="DARWINV">      1.00000000</v>
   <i type="logical" name="LCORR"> T  </i>
  </separator>
  <i type="logical" name="GGA_COMPAT"> T  </i>
  <i type="logical" name="LBERRY"> F  </i>
  <i type="int" name="ICORELEVEL">     0</i>
  <i type="logical" name="LDAU"> F  </i>
  <i type="int" name="I_CONSTRAINED_M">     0</i>
  <separator name="electronic exchange-correlation" >
   <i type="string" name="GGA">--</i>
   <i type="int" name="VOSKOWN">     0</i>
   <i type="logical" name="LHFCALC"> F  </i>
   <i type="string" name="PRECFOCK"></i>
   <i type="logical" name="LSYMGRAD"> F  </i>
   <i type="logical" name="LHFONE"> F  </i>
   <i type="logical" name="LRHFCALC"> F  </i>
   <i type="logical" name="LTHOMAS"> F  </i>
   <i type="logical" name="LMODELHF"> F  </i>
   <i name="ENCUT4O">     -1.00000000</i>
   <i type="int" name="EXXOEP">     0</i>
   <i type="int" name="FOURORBIT">     0</i>
   <i name="AEXX">      0.00000000</i>
   <i name="HFALPHA">      0.00000000</i>
   <i name="MCALPHA">      0.00000000</i>
   <i name="ALDAX">      1.00000000</i>
   <i name="AGGAX">      1.00000000</i>
   <i name="ALDAC">      1.00000000</i>
   <i name="AGGAC">      1.00000000</i>
   <i type="int" name="NKREDX">     1</i>
   <i type="int" name="NKREDY">     1</i>
   <i type="int" name="NKREDZ">     1</i>
   <i type="logical" name="SHIFTRED"> F  </i>
   <i type="logical" name="ODDONLY"> F  </i>
   <i type="logical" name="EVENONLY"> F  </i>
   <i type="int" name="LMAXFOCK">     0</i>
   <i type="int" name="NMAXFOCKAE">     0</i>
   <i type="logical" name="LFOCKAEDFT"> F  </i>
   <i name="HFSCREEN">      0.00000000</i>
   <i name="HFSCREENC">      0.00000000</i>
   <i type="int" name="NBANDSGWLOW">     0</i>
  </separator>
  <separator name="vdW DFT" >
   <i type="logical" name="LUSE_VDW"> F  </i>
   <i name="Zab_VDW">     -0.84910000</i>
   <i name="PARAM1">      0.12340000</i>
   <i name="PARAM2">      1.00000000</i>
   <i name="PARAM3">      0.00000000</i>
  </separator>
  <separator name="model GW" >
   <i type="int" name="MODEL_GW">     0</i>
   <i name="MODEL_EPS0">      9.17662200</i>
   <i name="MODEL_ALPHA">      1.00000000</i>
  </separator>
  <separator name="linear response parameters" >
   <i type="logical" name="LEPSILON"> F  </i>
   <i type="logical" name="LRPA"> F  </i>
   <i type="logical" name="LNABLA"> F  </i>
   <i type="logical" name="LVEL"> F  </i>
   <i type="int" name="KINTER">     0</i>
   <i name="CSHIFT">      0.10000000</i>
   <i name="OMEGAMAX">     -1.00000000</i>
   <i name="DEG_THRESHOLD">      0.00200000</i>
   <i name="RTIME">     -0.10000000</i>
   <i name="WPLASMAI">      0.00000000</i>
   <v name="DFIELD">      0.00000000      0.00000000      0.00000000</v>
   <v name="WPLASMA">      0.00000000      0.00000000      0.00000000      0.00000000      0.00000000      0.00000000      0.00000000      0.00000000      0.00000000</v>
  </separator>
  <separator name="orbital magnetization" >
   <i type="logical" name="NUCIND"> F  </i>
   <v name="MAGPOS">      0.00000000      0.00000000      0.00000000</v>
   <i type="logical" name="LNICSALL"> T  </i>
   <i type="logical" name="ORBITALMAG"> F  </i>
   <i type="logical" name="LMAGBLOCH"> F  </i>
   <i type="logical" name="LCHIMAG"> F  </i>
   <i type="logical" name="LGAUGE"> T  </i>
   <i type="int" name="MAGATOM">     0</i>
   <v name="MAGDIPOL">      0.00000000      0.00000000      0.00000000</v>
   <v name="AVECCONST">      0.00000000      0.00000000      0.00000000</v>
  </separator>
  <separator name="response functions" >
   <i type="logical" name="LADDER"> F  </i>
   <i type="logical" name="LRPAFORCE"> F  </i>
   <i type="logical" name="LFXC"> F  </i>
   <i type="logical" name="LHARTREE"> T  </i>
   <i type="int" name="IBSE">     0</i>
   <v type="int" name="KPOINT">    -1     0     0     0</v>
   <i type="logical" name="LTCTE"> F  </i>
   <i type="logical" name="LTETE"> F  </i>
   <i type="logical" name="LTRIPLET"> F  </i>
   <i type="logical" name="LFXCEPS"> F  </i>
   <i type="logical" name="LFXHEG"> F  </i>
   <i type="int" name="NATURALO">     2</i>
   <i type="logical" name="L2ORDER"> F  </i>
   <i type="logical" name="LMP2LT"> F  </i>
   <i type="logical" name="LUSEW"> F  </i>
   <i name="ENCUTGW">     -2.00000000</i>
   <i name="ENCUTGWSOFT">     -2.00000000</i>
   <i name="ENCUTLF">     -1.00000000</i>
   <i type="int" name="LMAXMP2">    -1</i>
   <i name="SCISSOR">      0.00000000</i>
   <i type="int" name="NOMEGA">     0</i>
   <i type="int" name="NOMEGAR">     0</i>
   <i type="int" name="NBANDSGW">    -1</i>
   <i type="int" name="NBANDSO">    -1</i>
   <i type="int" name="NBANDSV">    -1</i>
   <i type="int" name="NELM">     1</i>
   <i type="int" name="NELMHF">     1</i>
   <i type="int" name="DIM">     3</i>
   <i type="int" name="ANTIRES">     0</i>
   <i name="OMEGAMAX">    -30.00000000</i>
   <i name="OMEGAMIN">    -30.00000000</i>
   <i name="OMEGATL">   -200.00000000</i>
   <i type="int" name="OMEGAGRID">   140</i>
   <i name="CSHIFT">     -0.10000000</i>
   <i type="logical" name="SELFENERGY"> F  </i>
   <i type="logical" name="LSPECTRAL"> F  </i>
   <i type="logical" name="LSPECTRALGW"> F  </i>
   <i type="logical" name="LSINGLES"> F  </i>
   <i type="logical" name="LFERMIGW"> F  </i>
   <i type="logical" name="ODDONLYGW"> F  </i>
   <i type="logical" name="EVENONLYGW"> F  </i>
   <i type="int" name="NKREDLFX">     1</i>
   <i type="int" name="NKREDLFY">     1</i>
   <i type="int" name="NKREDLFZ">     1</i>
   <i type="int" name="MAXMEM">  2800</i>
   <i type="int" name="TELESCOPE">     0</i>
   <i type="int" name="TAUPAR">     1</i>
   <i type="int" name="OMEGAPAR">    -1</i>
   <i name="LAMBDA">      1.00000000</i>
  </separator>
  <separator name="External order field" >
   <i name="OFIELD_KAPPA">      0.00000000</i>
   <v name="OFIELD_K">      0.00000000      0.00000000      0.00000000</v>
   <i name="OFIELD_Q6_NEAR">      0.00000000</i>
   <i name="OFIELD_Q6_FAR">      0.00000000</i>
   <i name="OFIELD_A">      0.00000000</i>
  </separator>
 </parameters>
 <atominfo>
  <atoms>       2 </atoms>
  <types>       1 </types>
  <array name="atoms" >
   <dimension dim="1">ion</dimension>
   <field type="string">element</field>
   <field type="int">atomtype</field>
   <set>
    <rc><c>Si</c><c>   1</c></rc>
    <rc><c>Si</c><c>   1</c></rc>
   </set>
  </array>
  <array name="atomtypes" >
   <dimension dim="1">type</dimension>
   <field type="int">atomspertype</field>
   <field type="string">element</field>
   <field>mass</field>
   <field>valence</field>
   <field type="string">pseudopotential</field>
   <set>
    <rc><c>   2</c><c>Si</c><c>     28.08500000</c><c>      4.00000000</c><c> PAW_PBE Si 05Jan2001                   </c></rc>
   </set>
  </array>
 </atominfo>
 <structure name="initialpos" >
  <crystal>
   <varray name="basis" >
    <v>      -2.45000000       2.45000000       1.27400000 </v>
    <v>       2.45000000      -2.45000000       1.27400000 </v>
    <v>       2.45000000       2.45000000      -1.27400000 </v>
   </varray>
   <i name="volume">     30.58874000 </i>
   <varray name="rec_basis" >
    <v>       0.00000000       0.20408163       0.39246468 </v>
    <v>       0.20408163       0.00000000       0.39246468 </v>
    <v>       0.20408163       0.20408163      -0.00000000 </v>
   </varray>
  </crystal>
  <varray name="positions" >
   <v>       0.25000000       0.75000000       0.50000000 </v>
   <v>       0.00000000       0.00000000       0.00000000 </v>
  </varray>
 </structure>
 <calculation>
  <scstep>
   <time name="dav">    0.02    0.02</time>
   <time name="total">    0.07    0.11</time>
   <energy>
    <i name="alphaZ">      4.40202223 </i>
    <i name="ewald">   -265.18101312 </i>
    <i name="hartreedc">     -2.24992262 </i>
    <i name="XCdc">    -17.62004665 </i>
    <i name="pawpsdc">     69.81931390 </i>
    <i name="pawaedc">    -34.70954046 </i>
    <i name="eentropy">     -0.05641896 </i>
    <i name="bandstr">     27.43613937 </i>
    <i name="atom">    206.12968587 </i>
    <i name="e_fr_energy">    -12.02978043 </i>
    <i name="e_wo_entrp">    -11.97336147 </i>
    <i name="e_0_energy">    -12.00157095 </i>
   </energy>
  </scstep>
  <scstep>
   <time name="dav">    0.02    0.02</time>
   <time name="total">    0.04    0.06</time>
   <energy>
    <i name="alphaZ">      4.40202223 </i>
    <i name="ewald">   -265.18101312 </i>
    <i name="hartreedc">     -2.24958568 </i>
    <i name="XCdc">    -17.62003832 </i>
    <i name="pawpsdc">     69.81716908 </i>
    <i name="pawaedc">    -34.70728395 </i>
    <i name="eentropy">     -0.05641896 </i>
    <i name="bandstr">     27.43568261 </i>
    <i name="atom">    206.12968587 </i>
    <i name="e_fr_energy">    -12.02978023 </i>
    <i name="e_wo_entrp">    -11.97336127 </i>
    <i name="e_0_energy">    -12.00157075 </i>
   </energy>
  </scstep>
  <structure>
   <crystal>
    <varray name="basis" >
     <v>      -2.45000000       2.45000000       1.27400000 </v>
     <v>       2.45000000      -2.45000000       1.27400000 </v>
     <v>       2.45000000       2.45000000      -1.27400000 </v>
    </varray>
    <i name="volume">     30.58874000 </i>
    <varray name="rec_basis" >
     <v>       0.00000000       0.20408163       0.39246468 </v>
     <v>       0.20408163       0.00000000       0.39246468 </v>
     <v>       0.20408163       0.20408163      -0.00000000 </v>
    </varray>
   </crystal>
   <varray name="positions" >
    <v>       0.25000000       0.75000000       0.50000000 </v>
    <v>       0.00000000       0.00000000       0.00000000 </v>
   </varray>
  </structure>
  <varray name="forces" >
   <v>      -0.00000000       0.00000000      -0.00000000 </v>
   <v>       0.00000000      -0.00000000       0.00000000 </v>
  </varray>
  <varray name="stress" >
   <v>    -237.17938074       0.00000000       0.00000000 </v>
   <v>       0.00000000    -237.17938074      -0.00000000 </v>
   <v>       0.00000000      -0.00000000     236.97925176 </v>
  </varray>
  <energy>
   <i name="e_fr_energy">    -12.02978023 </i>
   <i name="e_wo_entrp">    -12.00157075 </i>
   <i name="e_0_energy">     -0.05641896 </i>
  </energy>
  <time name="totalsc">    0.94    1.61</time>
  <eigenvalues>
   <array>
    <dimension dim="1">band</dimension>
    <dimension dim="2">kpoint</dimension>
    <dimension dim="3">spin</dimension>
    <field>eigene</field>
    <field>occ</field>
    <set>
     <set comment="spin 1">
      <set comment="kpoint 1">
       <r>    3.3736    1.0000 </r>
       <r>    3.3736    1.0000 </r>
       <r>    4.0250    1.0000 </r>
       <r>    4.0250    1.0000 </r>
       <r>   13.1829    0.0000 </r>
       <r>   13.1829    0.0000 </r>
       <r>   14.9997    0.0000 </r>
       <r>   14.9997    0.0000 </r>
      </set>
      <set comment="kpoint 2">
       <r>   -3.1659    1.0000 </r>
       <r>    1.8886    1.0000 </r>
       <r>    3.6155    1.0000 </r>
       <r>    8.5139    0.5000 </r>
       <r>   12.8469    0.0000 </r>
       <r>   16.0274    0.0000 </r>
       <r>   17.2124    0.0000 </r>
       <r>   18.2342    0.0000 </r>
      </set>
      <set comment="kpoint 3">
       <r>    0.8267    1.0000 </r>
       <r>    5.7306    1.0000 </r>
       <r>    5.8239    1.0000 </r>
       <r>    7.2513    1.0000 </r>
       <r>    7.2514    1.0000 </r>
       <r>   11.5246    0.0000 </r>
       <r>   12.2358    0.0000 </r>
       <r>   12.2358    0.0000 </r>
      </set>
     </set>
    </set>
   </array>
  </eigenvalues>
  <separator name="orbital magnetization" >
   <v name="MAGDIPOLOUT">      0.00000000      0.00000000      0.00000000</v>
  </separator>
  <dos>
   <i name="efermi">      8.51391222 </i>
   <total>
    <array>
     <dimension dim="1">gridpoints</dimension>
     <dimension dim="2">spin</dimension>
     <field>energy</field>
     <field>total</field>
     <field>integrated</field>
     <set>
      <set comment="spin 1">
       <r>    -5.1659     0.0000     0.0000 </r>
       <r>    -5.0812     0.0000     0.0000 </r>
       <r>    -4.9965     0.0000     0.0000 </r>
       <r>    -4.9119     0.0000     0.0000 </r>
       <r>    -4.8272     0.0000     0.0000 </r>
       <r>    -4.7425     0.0000     0.0000 </r>
       <r>    -4.6579     0.0000     0.0000 </r>
       <r>    -4.5732     0.0000     0.0000 </r>
       <r>    -4.4885     0.0000     0.0000 </r>
       <r>    -4.4039     0.0000     0.0000 </r>
       <r>    -4.3192     0.0000     0.0000 </r>
       <r>    -4.2345     0.0000     0.0000 </r>
       <r>    -4.1499     0.0000     0.0000 </r>
       <r>    -4.0652     0.0000     0.0000 </r>
       <r>    -3.9805     0.0000     0.0000 </r>
       <r>    -3.8959     0.0000     0.0000 </r>
       <r>    -3.8112     0.0000     0.0000 </r>
       <r>    -3.7265     0.0004     0.0000 </r>
       <r>    -3.6419     0.0041     0.0004 </r>
       <r>    -3.5572     0.0289     0.0028 </r>
       <r>    -3.4725     0.1445     0.0151 </r>
       <r>    -3.3879     0.5099     0.0582 </r>
       <r>    -3.3032     1.2699     0.1658 </r>
       <r>    -3.2185     2.2328     0.3548 </r>
       <r>    -3.1339     2.7722     0.5895 </r>
       <r>    -3.0492     2.4306     0.7953 </r>
       <r>    -2.9645     1.5050     0.9227 </r>
       <r>    -2.8799     0.6579     0.9784 </r>
       <r>    -2.7952     0.2030     0.9956 </r>
       <r>    -2.7105     0.0442     0.9994 </r>
       <r>    -2.6259     0.0068     0.9999 </r>
       <r>    -2.5412     0.0007     1.0000 </r>
       <r>    -2.4565     0.0001     1.0000 </r>
       <r>    -2.3719     0.0000     1.0000 </r>
       <r>    -2.2872     0.0000     1.0000 </r>
       <r>    -2.2025     0.0000     1.0000 </r>
       <r>    -2.1179     0.0000     1.0000 </r>
       <r>    -2.0332     0.0000     1.0000 </r>
       <r>    -1.9485     0.0000     1.0000 </r>
       <r>    -1.8639     0.0000     1.0000 </r>
       <r>    -1.7792     0.0000     1.0000 </r>
       <r>    -1.6945     0.0000     1.0000 </r>
       <r>    -1.6099     0.0000     1.0000 </r>
       <r>    -1.5252     0.0000     1.0000 </r>
       <r>    -1.4405     0.0000     1.0000 </r>
       <r>    -1.3559     0.0000     1.0000 </r>
       <r>    -1.2712     0.0000     1.0000 </r>
       <r>    -1.1865     0.0000     1.0000 </r>
       <r>    -1.1019     0.0000     1.0000 </r>
       <r>    -1.0172     0.0000     1.0000 </r>
       <r>    -0.9325     0.0000     1.0000 </r>
       <r>    -0.8479     0.0000     1.0000 </r>
       <r>    -0.7632     0.0000     1.0000 </r>
       <r>    -0.6785     0.0000     1.0000 </r>
       <r>    -0.5939     0.0000     1.0000 </r>
       <r>    -0.5092     0.0000     1.0000 </r>
       <r>    -0.4245     0.0000     1.0000 </r>
       <r>    -0.3399     0.0000     1.0000 </r>
       <r>    -0.2552     0.0000     1.0000 </r>
       <r>    -0.1705     0.0000     1.0000 </r>
       <r>    -0.0859     0.0000     1.0000 </r>
       <r>    -0.0012     0.0000     1.0000 </r>
       <r>     0.0835     0.0000     1.0000 </r>
       <r>     0.1681     0.0000     1.0000 </r>
       <r>     0.2528     0.0001     1.0000 </r>
       <r>     0.3375     0.0015     1.0001 </r>
       <r>     0.4221     0.0109     1.0011 </r>
       <r>     0.5068     0.0575     1.0059 </r>
       <r>     0.5915     0.2143     1.0241 </r>
       <r>     0.6761     0.5635     1.0718 </r>
       <r>     0.7608     1.0460     1.1603 </r>
       <r>     0.8455     1.3711     1.2764 </r>
       <r>     0.9301     1.2693     1.3839 </r>
       <r>     1.0148     0.8297     1.4541 </r>
       <r>     1.0995     0.3830     1.4866 </r>
       <r>     1.1841     0.1248     1.4971 </r>
       <r>     1.2688     0.0287     1.4996 </r>
       <r>     1.3535     0.0055     1.5000 </r>
       <r>     1.4381     0.0082     1.5007 </r>
       <r>     1.5228     0.0487     1.5048 </r>
       <r>     1.6075     0.2193     1.5234 </r>
       <r>     1.6921     0.6965     1.5824 </r>
       <r>     1.7768     1.5617     1.7146 </r>
       <r>     1.8615     2.4723     1.9239 </r>
       <r>     1.9461     2.7638     2.1579 </r>
       <r>     2.0308     2.1820     2.3427 </r>
       <r>     2.1155     1.2164     2.4457 </r>
       <r>     2.2001     0.4788     2.4862 </r>
       <r>     2.2848     0.1330     2.4975 </r>
       <r>     2.3695     0.0261     2.4997 </r>
       <r>     2.4541     0.0036     2.5000 </r>
       <r>     2.5388     0.0004     2.5000 </r>
       <r>     2.6235     0.0000     2.5000 </r>
       <r>     2.7081     0.0000     2.5000 </r>
       <r>     2.7928     0.0002     2.5000 </r>
       <r>     2.8775     0.0024     2.5002 </r>
       <r>     2.9621     0.0188     2.5018 </r>
       <r>     3.0468     0.1021     2.5105 </r>
       <r>     3.1315     0.3935     2.5438 </r>
       <r>     3.2161     1.0799     2.6352 </r>
       <r>     3.3008     2.1414     2.8165 </r>
       <r>     3.3855     3.1768     3.0855 </r>
       <r>     3.4701     3.7702     3.4047 </r>
       <r>     3.5548     3.8929     3.7343 </r>
       <r>     3.6395     3.6155     4.0404 </r>
       <r>     3.7241     2.9346     4.2889 </r>
       <r>     3.8088     2.2134     4.4763 </r>
       <r>     3.8935     2.0683     4.6514 </r>
       <r>     3.9781     2.5234     4.8650 </r>
       <r>     4.0628     2.8300     5.1046 </r>
       <r>     4.1475     2.3865     5.3067 </r>
       <r>     4.2321     1.4387     5.4285 </r>
       <r>     4.3168     0.6137     5.4805 </r>
       <r>     4.4015     0.1849     5.4961 </r>
       <r>     4.4861     0.0393     5.4994 </r>
       <r>     4.5708     0.0059     5.4999 </r>
       <r>     4.6555     0.0006     5.5000 </r>
       <r>     4.7401     0.0000     5.5000 </r>
       <r>     4.8248     0.0000     5.5000 </r>
       <r>     4.9095     0.0000     5.5000 </r>
       <r>     4.9941     0.0000     5.5000 </r>
       <r>     5.0788     0.0000     5.5000 </r>
       <r>     5.1635     0.0002     5.5000 </r>
       <r>     5.2481     0.0019     5.5002 </r>
       <r>     5.3328     0.0140     5.5014 </r>
       <r>     5.4175     0.0751     5.5077 </r>
       <r>     5.5021     0.2900     5.5323 </r>
       <r>     5.5868     0.8084     5.6007 </r>
       <r>     5.6715     1.6362     5.7393 </r>
       <r>     5.7561     2.4160     5.9438 </r>
       <r>     5.8408     2.6109     6.1649 </r>
       <r>     5.9255     2.0664     6.3398 </r>
       <r>     6.0101     1.1954     6.4410 </r>
       <r>     6.0948     0.5034     6.4836 </r>
       <r>     6.1795     0.1535     6.4966 </r>
       <r>     6.2641     0.0337     6.4995 </r>
       <r>     6.3488     0.0053     6.4999 </r>
       <r>     6.4335     0.0006     6.5000 </r>
       <r>     6.5181     0.0000     6.5000 </r>
       <r>     6.6028     0.0000     6.5000 </r>
       <r>     6.6875     0.0004     6.5000 </r>
       <r>     6.7721     0.0038     6.5004 </r>
       <r>     6.8568     0.0270     6.5026 </r>
       <r>     6.9415     0.1368     6.5142 </r>
       <r>     7.0261     0.4892     6.5556 </r>
       <r>     7.1108     1.2345     6.6602 </r>
       <r>     7.1955     2.1995     6.8464 </r>
       <r>     7.2801     2.7670     7.0807 </r>
       <r>     7.3648     2.4583     7.2888 </r>
       <r>     7.4495     1.5423     7.4194 </r>
       <r>     7.5341     0.6832     7.4772 </r>
       <r>     7.6188     0.2136     7.4953 </r>
       <r>     7.7035     0.0471     7.4993 </r>
       <r>     7.7881     0.0073     7.4999 </r>
       <r>     7.8728     0.0008     7.5000 </r>
       <r>     7.9575     0.0005     7.5000 </r>
       <r>     8.0421     0.0045     7.5004 </r>
       <r>     8.1268     0.0316     7.5031 </r>
       <r>     8.2115     0.1552     7.5162 </r>
       <r>     8.2961     0.5381     7.5618 </r>
       <r>     8.3808     1.3170     7.6733 </r>
       <r>     8.4655     2.2758     7.8660 </r>
       <r>     8.5501     2.7769     8.1011 </r>
       <r>     8.6348     2.3928     8.3037 </r>
       <r>     8.7195     1.4560     8.4270 </r>
       <r>     8.8041     0.6255     8.4799 </r>
       <r>     8.8888     0.1897     8.4960 </r>
       <r>     8.9735     0.0406     8.4994 </r>
       <r>     9.0581     0.0061     8.4999 </r>
       <r>     9.1428     0.0007     8.5000 </r>
       <r>     9.2275     0.0000     8.5000 </r>
       <r>     9.3121     0.0000     8.5000 </r>
       <r>     9.3968     0.0000     8.5000 </r>
       <r>     9.4815     0.0000     8.5000 </r>
       <r>     9.5661     0.0000     8.5000 </r>
       <r>     9.6508     0.0000     8.5000 </r>
       <r>     9.7355     0.0000     8.5000 </r>
       <r>     9.8201     0.0000     8.5000 </r>
       <r>     9.9048     0.0000     8.5000 </r>
       <r>     9.9895     0.0000     8.5000 </r>
       <r>    10.0741     0.0000     8.5000 </r>
       <r>    10.1588     0.0000     8.5000 </r>
       <r>    10.2435     0.0000     8.5000 </r>
       <r>    10.3281     0.0000     8.5000 </r>
       <r>    10.4128     0.0000     8.5000 </r>
       <r>    10.4975     0.0000     8.5000 </r>
       <r>    10.5821     0.0000     8.5000 </r>
       <r>    10.6668     0.0000     8.5000 </r>
       <r>    10.7515     0.0000     8.5000 </r>
       <r>    10.8361     0.0000     8.5000 </r>
       <r>    10.9208     0.0001     8.5000 </r>
       <r>    11.0055     0.0007     8.5001 </r>
       <r>    11.0901     0.0056     8.5005 </r>
       <r>    11.1748     0.0333     8.5033 </r>
       <r>    11.2595     0.1402     8.5152 </r>
       <r>    11.3441     0.4169     8.5505 </r>
       <r>    11.4288     0.8750     8.6246 </r>
       <r>    11.5135     1.2967     8.7344 </r>
       <r>    11.5981     1.3572     8.8493 </r>
       <r>    11.6828     1.0036     8.9343 </r>
       <r>    11.7675     0.5284     8.9790 </r>
       <r>    11.8521     0.2268     8.9982 </r>
       <r>    11.9368     0.2145     9.0164 </r>
       <r>    12.0215     0.5710     9.0647 </r>
       <r>    12.1061     1.3569     9.1796 </r>
       <r>    12.1908     2.3099     9.3752 </r>
       <r>    12.2755     2.7792     9.6105 </r>
       <r>    12.3601     2.3641     9.8106 </r>
       <r>    12.4448     1.4395     9.9325 </r>
       <r>    12.5295     0.7202     9.9935 </r>
       <r>    12.6141     0.6227    10.0462 </r>
       <r>    12.6988     1.1942    10.1473 </r>
       <r>    12.7835     2.1489    10.3293 </r>
       <r>    12.8681     2.8760    10.5728 </r>
       <r>    12.9528     2.9786    10.8249 </r>
       <r>    13.0375     2.8121    11.0630 </r>
       <r>    13.1221     2.8927    11.3080 </r>
       <r>    13.2068     2.9969    11.5617 </r>
       <r>    13.2915     2.5533    11.7779 </r>
       <r>    13.3761     1.6081    11.9140 </r>
       <r>    13.4608     0.7238    11.9753 </r>
       <r>    13.5455     0.2306    11.9948 </r>
       <r>    13.6301     0.0519    11.9992 </r>
       <r>    13.7148     0.0082    11.9999 </r>
       <r>    13.7995     0.0009    12.0000 </r>
       <r>    13.8841     0.0001    12.0000 </r>
       <r>    13.9688     0.0000    12.0000 </r>
       <r>    14.0535     0.0000    12.0000 </r>
       <r>    14.1381     0.0000    12.0000 </r>
       <r>    14.2228     0.0000    12.0000 </r>
       <r>    14.3075     0.0000    12.0000 </r>
       <r>    14.3921     0.0001    12.0000 </r>
       <r>    14.4768     0.0012    12.0001 </r>
       <r>    14.5615     0.0102    12.0010 </r>
       <r>    14.6461     0.0619    12.0062 </r>
       <r>    14.7308     0.2648    12.0286 </r>
       <r>    14.8155     0.7999    12.0964 </r>
       <r>    14.9001     1.7053    12.2407 </r>
       <r>    14.9848     2.5672    12.4581 </r>
       <r>    15.0695     2.7290    12.6892 </r>
       <r>    15.1541     2.0487    12.8626 </r>
       <r>    15.2388     1.0860    12.9546 </r>
       <r>    15.3235     0.4064    12.9890 </r>
       <r>    15.4081     0.1074    12.9981 </r>
       <r>    15.4928     0.0209    12.9998 </r>
       <r>    15.5775     0.0104    13.0007 </r>
       <r>    15.6621     0.0495    13.0049 </r>
       <r>    15.7468     0.2212    13.0236 </r>
       <r>    15.8315     0.7009    13.0830 </r>
       <r>    15.9161     1.5681    13.2157 </r>
       <r>    16.0008     2.4768    13.4254 </r>
       <r>    16.0855     2.7627    13.6593 </r>
       <r>    16.1701     2.1762    13.8436 </r>
       <r>    16.2548     1.2105    13.9461 </r>
       <r>    16.3395     0.4753    13.9863 </r>
       <r>    16.4241     0.1317    13.9975 </r>
       <r>    16.5088     0.0258    13.9997 </r>
       <r>    16.5935     0.0036    14.0000 </r>
       <r>    16.6782     0.0012    14.0001 </r>
       <r>    16.7628     0.0078    14.0007 </r>
       <r>    16.8475     0.0496    14.0049 </r>
       <r>    16.9322     0.2223    14.0238 </r>
       <r>    17.0168     0.7037    14.0833 </r>
       <r>    17.1015     1.5721    14.2164 </r>
       <r>    17.1862     2.4797    14.4264 </r>
       <r>    17.2708     2.7620    14.6602 </r>
       <r>    17.3555     2.1726    14.8442 </r>
       <r>    17.4402     1.2067    14.9464 </r>
       <r>    17.5248     0.4732    14.9864 </r>
       <r>    17.6095     0.1310    14.9975 </r>
       <r>    17.6942     0.0263    14.9997 </r>
       <r>    17.7788     0.0103    15.0006 </r>
       <r>    17.8635     0.0445    15.0044 </r>
       <r>    17.9482     0.2030    15.0216 </r>
       <r>    18.0328     0.6579    15.0773 </r>
       <r>    18.1175     1.5050    15.2047 </r>
       <r>    18.2022     2.4306    15.4105 </r>
       <r>    18.2868     2.7722    15.6452 </r>
       <r>    18.3715     2.2328    15.8342 </r>
       <r>    18.4562     1.2699    15.9418 </r>
       <r>    18.5408     0.5099    15.9849 </r>
       <r>    18.6255     0.1445    15.9972 </r>
       <r>    18.7102     0.0289    15.9996 </r>
       <r>    18.7948     0.0041    16.0000 </r>
       <r>    18.8795     0.0004    16.0000 </r>
       <r>    18.9642     0.0000    16.0000 </r>
       <r>    19.0488     0.0000    16.0000 </r>
       <r>    19.1335     0.0000    16.0000 </r>
       <r>    19.2182     0.0000    16.0000 </r>
       <r>    19.3028     0.0000    16.0000 </r>
       <r>    19.3875     0.0000    16.0000 </r>
       <r>    19.4722     0.0000    16.0000 </r>
       <r>    19.5568     0.0000    16.0000 </r>
       <r>    19.6415     0.0000    16.0000 </r>
       <r>    19.7262     0.0000    16.0000 </r>
       <r>    19.8108     0.0000    16.0000 </r>
       <r>    19.8955     0.0000    16.0000 </r>
       <r>    19.9802     0.0000    16.0000 </r>
       <r>    20.0648     0.0000    16.0000 </r>
       <r>    20.1495     0.0000    16.0000 </r>
       <r>    20.2342     0.0000    16.0000 </r>
      </set>
     </set>
    </array>
   </total>
  </dos>
 </calculation>
 <structure name="finalpos" >
  <crystal>
   <varray name="basis" >
    <v>      -2.45000000       2.45000000       1.27400000 </v>
    <v>       2.45000000      -2.45000000       1.27400000 </v>
    <v>       2.45000000       2.45000000      -1.27400000 </v>
   </varray>
   <i name="volume">     30.58874000 </i>
   <varray name="rec_basis" >
    <v>       0.00000000       0.20408163       0.39246468 </v>
    <v>       0.20408163       0.00000000       0.39246468 </v>
    <v>       0.20408163       0.20408163      -0.00000000 </v>
   </varray>
  </crystal>
  <varray name="positions" >
   <v>       0.25000000       0.75000000       0.50000000 </v>
   <v>       0.00000000       0.00000000       0.00000000 </v>
  </varray>
 </structure>
</modeling>
