unknown system                          
   1.00000000000000     
    -2.450000    2.450000    1.274000
     2.450000   -2.450000    1.274000
     2.450000    2.450000   -1.274000
   Si
     2
Direct
  0.250000  0.750000  0.500000
  0.000000  0.000000  0.000000
 
   24   24   24
 -5.5554     -3.5405      1.4717      7.0429      10.819      11.796      10.569      8.5621      6.6902      5.2309    
  4.2474      3.6976      3.5226      3.6977      4.2474      5.2308      6.6902      8.5621      10.569      11.795    
  10.819      7.0430      1.4716     -3.5407     -3.5407     -4.5904     -1.8208      3.3388      8.4041      11.333    
  11.566      9.9911      7.9891      6.2254      4.9029      4.0468      3.6043      3.5226      3.7893      4.4402    
  5.5357      7.1027      9.0396      10.992      11.880      10.387      6.2459     0.79117      1.4716     -1.8209    
 -1.9230      1.2086      5.9241      9.9402      11.705      11.131      9.3017      7.3646      5.7444      4.5761    
  3.8525      3.5157      3.5225      3.8729      4.6103      5.7925      7.4279      9.3827      11.246      11.896    
  10.220      6.2459      7.0430      3.3388      1.2085      1.8313      4.8498      8.6087      11.234      11.752    
  10.488      8.5567      6.7334      5.2808      4.2724      3.6768      3.4375      3.5223      3.9421      4.7439    
  5.9786      7.6363      9.5621      11.330      11.896      10.387      10.819      8.4042      5.9241      4.8497    
  5.8496      8.3225      10.810      11.974      11.403      9.7052      7.8074      6.1379      4.8639      4.0097    
  3.5300      3.3744      3.5222      3.9916      4.8292      6.0763      7.7081      9.5621      11.246      11.880    
  11.795      11.333      9.9402      8.6087      8.3225      9.3385      10.986      12.150      12.051      10.732    
  8.8946      7.1065      5.6154      4.5170      3.8016      3.4198      3.3303      3.5221      4.0174      4.8585    
  6.0763      7.6363      9.3827      10.992      10.569      11.566      11.705      11.234      10.810      10.986    
  11.749      12.507      12.547      11.577      9.9257      8.1338      6.5032      5.1967      4.2576      3.6579    
  3.3516      3.3076      3.5220      4.0174      4.8292      5.9786      7.4279      9.0396      8.5621      9.9911    
  11.131      11.752      11.974      12.150      12.507      12.902      12.915      12.206      10.829      9.1577    
  7.4916      6.0401      4.9049      4.0974      3.5846      3.3286      3.3076      3.5221      3.9916      4.7439    
  5.7925      7.1027      6.6902      7.9891      9.3017      10.488      11.403      12.051      12.547      12.915    
  12.990      12.544      11.517      10.099      8.5283      7.0276      5.7492      4.7552      4.0433      3.5846    
  3.3516      3.3303      3.5222      3.9421      4.6103      5.5357      5.2308      6.2254      7.3646      8.5567    
  9.7052      10.732      11.577      12.206      12.544      12.461      11.880      10.855      9.5336      8.1167    
  6.7845      5.6500      4.7552      4.0974      3.6579      3.4198      3.3744      3.5223      3.8729      4.4402    
  4.2474      4.9028      5.7443      6.7334      7.8075      8.8947      9.9256      10.829      11.517      11.881    
  11.823      11.308      10.395      9.2262      7.9737      6.7845      5.7492      4.9049      4.2576      3.8016    
  3.5300      3.4375      3.5225      3.7893      3.6977      4.0469      4.5761      5.2807      6.1379      7.1065    
  8.1339      9.1576      10.099      10.855      11.308      11.362      10.985      10.231      9.2262      8.1167    
  7.0276      6.0401      5.1967      4.5170      4.0097      3.6768      3.5157      3.5226      3.5226      3.6044    
  3.8525      4.2724      4.8638      5.6154      6.5033      7.4917      8.5283      9.5335      10.395      10.985    
  11.196      10.985      10.395      9.5336      8.5283      7.4916      6.5032      5.6154      4.8639      4.2724    
  3.8525      3.6043      3.6976      3.5225      3.5157      3.6768      4.0097      4.5169      5.1967      6.0402    
  7.0277      8.1167      9.2262      10.231      10.985      11.362      11.308      10.855      10.099      9.1577    
  8.1338      7.1065      6.1379      5.2808      4.5761      4.0468      4.2474      3.7893      3.5224      3.4375    
  3.5300      3.8016      4.2575      4.9048      5.7492      6.7846      7.9737      9.2262      10.395      11.308    
  11.823      11.880      11.517      10.829      9.9257      8.8946      7.8074      6.7334      5.7444      4.9029    
  5.2309      4.4402      3.8729      3.5222      3.3744      3.4199      3.6580      4.0974      4.7551      5.6500    
  6.7846      8.1167      9.5335      10.855      11.881      12.461      12.544      12.206      11.577      10.732    
  9.7052      8.5567      7.3646      6.2254      6.6902      5.5358      4.6104      3.9421      3.5221      3.3302    
  3.3517      3.5847      4.0433      4.7551      5.7492      7.0277      8.5283      10.099      11.517      12.544    
  12.990      12.915      12.547      12.051      11.403      10.488      9.3017      7.9891      8.5621      7.1026    
  5.7926      4.7440      3.9916      3.5220      3.3075      3.3287      3.5847      4.0974      4.9048      6.0402    
  7.4917      9.1576      10.829      12.206      12.915      12.902      12.507      12.150      11.974      11.752    
  11.131      9.9911      10.569      9.0395      7.4278      5.9786      4.8293      4.0174      3.5219      3.3075    
  3.3517      3.6580      4.2575      5.1967      6.5033      8.1339      9.9256      11.577      12.547      12.507    
  11.749      10.986      10.810      11.234      11.705      11.566      11.796      10.993      9.3826      7.6362    
  6.0763      4.8587      4.0174      3.5220      3.3302      3.4199      3.8016      4.5169      5.6154      7.1065    
  8.8947      10.732      12.051      12.150      10.986      9.3385      8.3225      8.6087      9.9402      11.333    
  10.819      11.880      11.247      9.5621      7.7080      6.0763      4.8293      3.9916      3.5221      3.3744    
  3.5300      4.0097      4.8638      6.1379      7.8075      9.7052      11.403      11.974      10.810      8.3225    
  5.8496      4.8498      5.9241      8.4041      7.0429      10.387      11.897      11.331      9.5621      7.6362    
  5.9786      4.7440      3.9421      3.5222      3.4375      3.6768      4.2724      5.2807      6.7334      8.5567    
  10.488      11.752      11.234      8.6087      4.8497      1.8313      1.2086      3.3388      1.4717      6.2457    
  10.220      11.897      11.247      9.3826      7.4278      5.7926      4.6104      3.8729      3.5224      3.5157    
  3.8525      4.5761      5.7443      7.3646      9.3017      11.131      11.705      9.9402      5.9241      1.2085    
 -1.9230     -1.8208     -3.5405     0.79122      6.2457      10.387      11.880      10.993      9.0395      7.1026    
  5.5358      4.4402      3.7893      3.5225      3.6044      4.0469      4.9028      6.2254      7.9891      9.9911    
  11.566      11.333      8.4042      3.3388     -1.8209     -4.5904     -3.5401     -2.1009      2.2012      7.2138    
  10.713      11.643      10.459      8.4780      6.6065      5.1281      4.1143      3.5274      3.3077      3.4250    
  3.8969      4.7779      6.1169      7.8770      9.8425      11.313      10.958      8.0391      3.2499     -1.3747    
 -2.1011     -3.5401     -1.3745      3.2499      8.0390      10.958      11.313      9.8426      7.8769      6.1168    
  4.7780      3.8969      3.4249      3.3077      3.5275      4.1143      5.1281      6.6066      8.4781      10.459    
  11.643      10.713      7.2140      2.2011      2.3604     -1.2004     -1.8205     0.79169      5.2147      9.2376    
  11.207      10.856      9.1424      7.2432      5.6268      4.4454      3.7036      3.3471      3.3303      3.6485    
  4.3419      5.4713      7.0597      9.0022      10.954      11.896      10.649      7.0417      7.6080      3.7050    
  1.1154      1.2088      3.8692      7.5823      10.433      11.273      10.248      8.4099      6.6188      5.1683    
  4.1510      3.5459      3.2986      3.3743      3.7803      4.5634      5.7810      7.4389      9.4061      11.302    
  12.114      10.861      11.321      8.7730      5.9033      4.2991      4.8498      7.1476      9.7786      11.280    
  11.039      9.5225      7.6887      6.0410      4.7679      3.9107      3.4322      3.2821      3.4372      3.9142    
  4.7621      6.0307      7.7099      9.6528      11.483      12.294      12.388      11.883      10.216      8.4164    
  7.6309      8.3224      9.9442      11.343      11.576      10.505      8.7668      7.0204      5.5417      4.4458    
  3.7362      3.3679      3.2986      3.5154      4.0407      4.9217      6.1981      7.8465      9.7169      11.475    
  11.260      12.315      12.336      11.539      10.664      10.430      10.986      11.796      12.060      11.324    
  9.7942      8.0536      6.4455      5.1472      4.2170      3.6348      3.3559      3.3472      3.6040      4.1508    
  5.0290      6.2674      7.8346      9.5892      9.2787      10.834      12.004      12.484      12.399      12.195    
  12.243      12.507      12.570      11.995      10.714      9.0817      7.4402      6.0013      4.8782      4.0914    
  3.6105      3.3963      3.4250      3.6974      4.2361      5.0747      6.2323      7.6747      7.3818      8.8116    
  10.225      11.429      12.218      12.614      12.815      12.950      12.915      12.458      11.445      10.030    
  8.4710      6.9820      5.7188      4.7496      4.0748      3.6640      3.4869      3.5277      3.7892      4.2901    
  5.0554      6.0965      5.8731      6.9832      8.2279      9.4889      10.639      11.567      12.216      12.617    
  12.759      12.544      11.875      10.797      9.4579      8.0424      6.7256      5.6208      4.7703      4.1688    
  3.7932      3.6230      3.6488      3.8730      4.3087      4.9731      4.8355      5.5828      6.5140      7.5762    
  8.6855      9.7482      10.683      11.427      11.920      12.094      11.880      11.259      10.289      9.1003    
  7.8578      6.7021      5.7196      4.9427      4.3708      3.9926      3.7977      3.7807      3.9424      4.2903    
  4.2364      4.6544      5.2502      6.0131      6.9081      7.8784      8.8560      9.7718      10.555      11.127    
  11.401      11.308      10.834      10.034      9.0278      7.9523      6.9237      6.0154      5.2614      4.6732    
  4.2534      4.0012      3.9146      3.9921      4.0180      4.1512      4.4445      4.9018      5.5180      6.2727    
  7.1300      8.0434      8.9567      9.7991      10.481      10.903      10.985      10.702      10.097      9.2675    
  8.3289      7.3814      6.4948      5.7126      5.0624      4.5622      4.2215      4.0412      4.1511      4.0180    
  4.0412      4.2216      4.5623      5.0623      5.7125      6.4948      7.3814      8.3288      9.2674      10.097    
  10.702      10.985      10.902      10.481      9.7991      8.9567      8.0433      7.1299      6.2727      5.5181    
  4.9018      4.4445      4.6544      4.2364      3.9921      3.9147      4.0013      4.2534      4.6731      5.2613    
  6.0154      6.9238      7.9522      9.0277      10.034      10.834      11.308      11.401      11.127      10.555    
  9.7719      8.8560      7.8784      6.9081      6.0131      5.2503      5.5828      4.8355      4.2903      3.9424    
  3.7807      3.7978      3.9927      4.3708      4.9426      5.7196      6.7022      7.8578      9.1002      10.289    
  11.260      11.880      12.094      11.920      11.427      10.683      9.7481      8.6854      7.5762      6.5141    
  6.9832      5.8732      4.9732      4.3087      3.8729      3.6488      3.6231      3.7933      4.1688      4.7702    
  5.6209      6.7257      8.0424      9.4578      10.797      11.875      12.544      12.759      12.617      12.216    
  11.567      10.639      9.4888      8.2279      8.8116      7.3818      6.0965      5.0555      4.2902      3.7891    
  3.5276      3.4870      3.6641      4.0747      4.7495      5.7188      6.9821      8.4710      10.030      11.445    
  12.458      12.915      12.950      12.815      12.614      12.218      11.429      10.225      10.834      9.2787    
  7.6746      6.2323      5.0749      4.2361      3.6972      3.4250      3.3964      3.6106      4.0913      4.8781    
  6.0013      7.4403      9.0817      10.714      11.995      12.570      12.507      12.243      12.195      12.399    
  12.484      12.004      12.315      11.260      9.5892      7.8344      6.2674      5.0291      4.1508      3.6038    
  3.3471      3.3560      3.6349      4.2169      5.1471      6.4456      8.0537      9.7942      11.324      12.060    
  11.796      10.986      10.430      10.664      11.539      12.336      11.883      12.388      11.475      9.7168    
  7.8463      6.1981      4.9219      4.0407      3.5152      3.2986      3.3680      3.7362      4.4457      5.5417    
  7.0205      8.7668      10.505      11.576      11.343      9.9442      8.3224      7.6309      8.4164      10.216    
  8.7729      11.321      12.295      11.483      9.6527      7.7097      6.0307      4.7622      3.9141      3.4371    
  3.2821      3.4323      3.9107      4.7678      6.0410      7.6888      9.5225      11.039      11.280      9.7787    
  7.1475      4.8497      4.2991      5.9033      3.7050      7.6078      10.861      12.114      11.302      9.4061    
  7.4387      5.7810      4.5635      3.7803      3.3742      3.2986      3.5459      4.1509      5.1683      6.6189    
  8.4099      10.248      11.273      10.433      7.5823      3.8691      1.2087      1.1155     -1.2003      2.3604    
  7.0416      10.649      11.897      10.954      9.0022      7.0596      5.4714      4.3419      3.6484      3.3302    
  3.3472      3.7036      4.4454      5.6267      7.2433      9.1424      10.856      11.207      9.2377      5.2147    
 0.79153     -1.8205      1.4727      2.3612      5.4686      9.1402      11.583      11.926      10.557      8.5872    
  6.7421      5.2716      4.2433      3.6227      3.3516      3.3962      3.7661      4.5079      5.6719      7.2478    
  9.0858      10.770      11.281      9.8079      6.6432      3.2504      2.2018     0.79241      2.2020      5.6443    
  9.2830      11.404      11.388      9.8502      7.9258      6.1996      4.8728      3.9833      3.4866      3.3286    
  3.4867      3.9832      4.8727      6.1996      7.9259      9.8501      11.388      11.404      9.2832      5.6442    
  5.4685      2.3610      1.4727      3.2506      6.6432      9.8078      11.281      10.770      9.0858      7.2477    
  5.6719      4.5080      3.7661      3.3961      3.3516      3.6228      4.2432      5.2716      6.7422      8.5872    
  10.557      11.925      11.583      9.1404      9.5045      6.2077      3.7054      3.3395      5.2151      8.1457    
  10.465      11.089      10.069      8.3152      6.5966      5.1918      4.1983      3.6032      3.3558      3.4198    
  3.7975      4.5310      5.6785      7.2606      9.1820      11.154      12.391      11.899      12.351      10.326    
  7.6921      5.9034      5.9244      7.5825      9.7118      10.974      10.725      9.3090      7.5793      6.0084    
  4.7845      3.9589      3.5025      3.3680      3.5300      4.0011      4.8278      6.0634      7.7125      9.6584    
  11.597      12.771      13.015      12.839      11.391      9.5422      8.4164      8.6086      9.7785      10.926    
  11.130      10.164      8.5537      6.9135      5.5112      4.4686      3.8004      3.4685      3.4324      3.6768    
  4.2215      5.1127      6.3948      8.0570      9.9698      11.840      11.847      13.054      13.204      12.392    
  11.289      10.663      10.810      11.343      11.530      10.872      9.4746      7.8569      6.3496      5.1271    
  4.2569      3.7287      3.5027      3.5462      3.8525      4.4444      5.3639      6.6436      8.2600      10.082    
  9.9786      11.600      12.822      13.281      13.032      12.519      12.194      12.150      12.059      11.491    
  10.307      8.7893      7.2605      5.9169      4.8731      4.1576      3.7466      3.6036      3.7040      4.0469    
  4.6544      5.5606      6.7866      8.3005      8.1731      9.6672      11.114      12.294      12.967      13.126    
  13.004      12.814      12.547      11.994      10.997      9.6522      8.1936      6.8086      5.6415      4.7620    
  4.1752      3.8535      3.7665      3.8973      4.2475      4.8354      5.6861      6.8102      6.7123      7.8901    
  9.1757      10.432      11.507      12.269      12.661      12.756      12.617      12.206      11.445      10.360    
  9.0785      7.7553      6.5426      5.5446      4.8024      4.3106      4.0452      3.9837      4.1148      4.4403    
  4.9730      5.7291      5.6858      6.5025      7.4788      8.5496      9.6148      10.564      11.309      11.797    
  12.005      11.920      11.516      10.797      9.8161      8.6825      7.5347      6.4954      5.6408      4.9976    
  4.5608      4.3140      4.2436      4.3423      4.6105      5.0552      5.0746      5.5602      6.2006      6.9774    
  7.8454      8.7355      9.5695      10.277      10.802      11.099      11.127      10.855      10.289      9.4835    
  8.5400      7.5750      6.6867      5.9352      5.3446      4.9170      4.6476      4.5311      4.5637      4.7441    
  4.8294      5.0289      5.3634      5.8339      6.4295      7.1222      7.8675      8.6126      9.3031      9.8838    
  10.296      10.481      10.395      10.034      9.4404      8.6957      7.8951      7.1191      6.4214      5.8314    
  5.3641      5.0282      4.8277      4.7622      4.9217      4.8587      4.9218      5.1124      5.4329      5.8788    
  6.4354      7.0781      7.7747      8.4849      9.1556      9.7182      10.097      10.232      10.097      9.7182    
  9.1557      8.4850      7.7747      7.0780      6.4354      5.8788      5.4329      5.1124      5.3634      5.0288    
  4.8294      4.7623      4.8277      5.0282      5.3640      5.8313      6.4214      7.1192      7.8951      8.6957    
  9.4404      10.034      10.395      10.481      10.296      9.8838      9.3032      8.6125      7.8674      7.1222    
  6.4296      5.8339      6.2007      5.5602      5.0745      4.7440      4.5637      4.5312      4.6476      4.9169    
  5.3445      5.9353      6.6868      7.5750      8.5399      9.4835      10.289      10.855      11.127      11.099    
  10.802      10.277      9.5695      8.7354      7.8454      6.9774      7.4788      6.5025      5.6859      5.0552    
  4.6104      4.3423      4.2437      4.3141      4.5607      4.9975      5.6408      6.4955      7.5347      8.6824    
  9.8161      10.797      11.517      11.920      12.005      11.797      11.309      10.564      9.6148      8.5496    
  9.1756      7.8901      6.7123      5.7292      4.9730      4.4402      4.1147      3.9838      4.0453      4.3106    
  4.8023      5.5447      6.5427      7.7552      9.0784      10.360      11.445      12.206      12.616      12.756    
  12.661      12.269      11.507      10.432      11.114      9.6672      8.1730      6.8102      5.6862      4.8355    
  4.2474      3.8972      3.7667      3.8536      4.1751      4.7619      5.6416      6.8087      8.1936      9.6520    
  10.997      11.994      12.547      12.814      13.004      13.126      12.967      12.294      12.822      11.601    
  9.9786      8.3003      6.7866      5.5608      4.6544      4.0467      3.7039      3.6037      3.7467      4.1575    
  4.8730      5.9170      7.2606      8.7892      10.307      11.491      12.059      12.150      12.194      12.519    
  13.032      13.281      13.204      13.054      11.847      10.082      8.2598      6.6436      5.3641      4.4445    
  3.8523      3.5461      3.5029      3.7288      4.2568      5.1270      6.3497      7.8570      9.4745      10.872    
  11.530      11.343      10.810      10.663      11.289      12.392      11.390      12.839      13.015      11.840    
  9.9697      8.0568      6.3948      5.1129      4.2215      3.6766      3.4324      3.4687      3.8004      4.4685    
  5.5112      6.9136      8.5537      10.164      11.129      10.926      9.7785      8.6086      8.4164      9.5423    
  7.6922      10.326      12.351      12.771      11.597      9.6583      7.7123      6.0634      4.8280      4.0010    
  3.5298      3.3680      3.5026      3.9589      4.7844      6.0084      7.5794      9.3090      10.725      10.974    
  9.7118      7.5824      5.9244      5.9036      3.7056      6.2078      9.5043      11.899      12.392      11.154    
  9.1819      7.2605      5.6785      4.5311      3.7974      3.4197      3.3559      3.6033      4.1982      5.1917    
  6.5967      8.3152      10.069      11.089      10.465      8.1457      5.2150      3.3395      7.0437      7.6084    
  9.5043      11.629      12.763      12.355      10.782      8.8756      7.1046      5.6755      4.6478      3.9926    
  3.6581      3.6107      3.8534      4.4227      5.3645      6.6875      8.3013      9.9750      11.157      11.121    
  9.8078      8.0394      7.2143      6.2468      7.0423      9.1401      11.275      12.239      11.632      9.9860    
  8.1373      6.4837      5.1979      4.3140      3.7932      3.5848      3.6642      4.0451      4.7727      5.8918    
  7.3914      9.1395      10.826      11.715      11.140      9.2830      9.1401      7.0420      6.2468      7.2146    
  9.2831      11.140      11.715      10.826      9.1395      7.3913      5.8918      4.7728      4.0451      3.6640    
  3.5849      3.7933      4.3140      5.1978      6.4838      8.1374      9.9859      11.631      12.239      11.275    
  11.629      9.5042      7.6082      7.0437      8.0396      9.8078      11.121      11.157      9.9751      8.3012    
  6.6874      5.3646      4.4228      3.8533      3.6106      3.6582      3.9927      4.6476      5.6754      7.1047    
  8.8758      10.782      12.355      12.763      13.278      12.198      10.325      8.7730      8.4045      9.2380    
  10.465      11.065      10.525      9.1224      7.5181      6.0635      4.9281      4.1633      3.7466      3.6350    
  3.8019      4.2534      5.0284      6.1760      7.7104      9.5482      11.459      12.954      13.371      13.717    
  12.863      11.390      10.216      9.9402      10.433      10.974      10.833      9.8103      8.3210      6.8259    
  5.5474      4.6002      4.0042      3.7288      3.7365      4.0098      4.5623      5.4332      6.6636      8.2512    
  10.093      11.952      12.203      13.540      13.971      13.428      12.392      11.539      11.234      11.279    
  11.130      10.370      9.0625      7.6053      6.2520      5.1583      4.3921      3.9506      3.8006      3.9111    
  4.2725      4.9018      5.8343      7.0990      8.6774      10.456      10.594      12.176      13.407      13.928    
  13.690      13.032      12.398      11.974      11.575      10.872      9.7324      8.3644      7.0053      5.8187    
  4.9096      4.3103      4.0042      3.9593      4.1514      4.5761      5.2502      6.2009      7.4438      8.9468    
  9.0307      10.491      11.867      12.951      13.519      13.511      13.126      12.613      12.051      11.323    
  10.307      9.0663      7.7666      6.5521      5.5453      4.8111      4.3581      4.1634      4.1987      4.4458    
  4.9028      5.5826      6.5025      7.6652      7.7415      8.9196      10.153      11.302      12.211      12.755    
  12.878      12.661      12.216      11.577      10.713      9.6522      8.4830      7.3177      6.2769      5.4485    
  4.8695      4.5354      4.4228      4.5084      4.7783      5.2308      5.8728      6.7120      6.8096      7.6649    
  8.6245      9.6157      10.535      11.272      11.743      11.914      11.797      11.427      10.829      10.030    
  9.0786      8.0557      7.0663      6.2074      5.5411      5.0879      4.8384      4.7728      4.8730      5.1284    
  5.5357      6.0960      6.2318      6.7858      7.4432      8.1753      8.9307      9.6394      10.227      10.635    
  10.830      10.802      10.555      10.099      9.4579      8.6826      7.8510      7.0528      6.3641      5.8302    
  5.4639      5.2577      5.1977      5.2716      5.4715      5.7925      5.9785      6.2670      6.6428      7.0983    
  7.6156      8.1628      8.6974      9.1734      9.5500      9.7949      9.8840      9.7992      9.5336      9.1003    
  8.5401      7.9170      7.3026      6.7562      6.3136      5.9874      5.7764      5.6751      5.6782      5.7810    
  6.0305      6.0762      6.1978      6.3941      6.6629      6.9961      7.3782      7.7876      8.1992      8.5860    
  8.9166      9.1558      9.2676      9.2263      9.0278      8.6958      8.2756      7.8205      7.3768      6.9764    
  6.6370      6.3680      6.1754      6.0628      6.3940      6.1977      6.0762      6.0306      6.0629      6.1754    
  6.3679      6.6369      6.9765      7.3769      7.8204      8.2755      8.6958      9.0279      9.2263      9.2675    
  9.1557      8.9167      8.5860      8.1992      7.7875      7.3783      6.9962      6.6629      7.0983      6.6428    
  6.2669      5.9784      5.7810      5.6783      5.6751      5.7763      5.9873      6.3136      6.7563      7.3025    
  7.9169      8.5401      9.1004      9.5336      9.7991      9.8839      9.7950      9.5500      9.1734      8.6973    
  8.1628      7.6156      8.1753      7.4432      6.7858      6.2318      5.7924      5.4715      5.2717      5.1977    
  5.2577      5.4638      5.8302      6.3642      7.0528      7.8509      8.6826      9.4580      10.099      10.555    
  10.802      10.830      10.635      10.227      9.6393      8.9307      9.6157      8.6245      7.6649      6.8097    
  6.0960      5.5355      5.1283      4.8731      4.7729      4.8384      5.0877      5.5412      6.2075      7.0663    
  8.0556      9.0786      10.030      10.829      11.427      11.797      11.914      11.743      11.272      10.535    
  11.302      10.153      8.9195      7.7415      6.7121      5.8728      5.2306      4.7782      4.5085      4.4230    
  4.5353      4.8694      5.4486      6.2770      7.3176      8.4828      9.6522      10.713      11.577      12.216    
  12.661      12.878      12.755      12.211      12.951      11.868      10.491      9.0305      7.6652      6.5027    
  5.5826      4.9026      4.4457      4.1988      4.1635      4.3580      4.8110      5.5454      6.5522      7.7665    
  9.0662      10.307      11.323      12.051      12.613      13.126      13.511      13.519      13.928      13.407    
  12.177      10.594      8.9466      7.4438      6.2011      5.2502      4.5759      4.1513      3.9595      4.0044    
  4.3102      4.9095      5.8188      7.0054      8.3643      9.7323      10.872      11.575      11.974      12.398    
  13.032      13.690      13.428      13.971      13.541      12.203      10.456      8.6772      7.0990      5.8345    
  4.9018      4.2723      3.9111      3.8008      3.9507      4.3919      5.1582      6.2521      7.6054      9.0624    
  10.369      11.130      11.279      11.233      11.539      12.392      11.390      12.862      13.717      13.371    
  11.952      10.093      8.2509      6.6636      5.4335      4.5623      4.0097      3.7365      3.7290      4.0042    
  4.6001      5.5474      6.8260      8.3210      9.8102      10.833      10.974      10.433      9.9402      10.216    
  8.7732      10.325      12.198      13.278      12.954      11.459      9.5481      7.7102      6.1761      5.0286    
  4.2534      3.8017      3.6351      3.7467      4.1633      4.9280      6.0636      7.5182      9.1224      10.525    
  11.065      10.465      9.2378      8.4045      10.819      11.321      12.350      13.277      13.421      12.550    
  11.017      9.3059      7.7004      6.3683      5.3643      4.6732      4.2577      4.0917      4.1753      4.5354    
  5.2096      6.2150      7.5057      8.9420      10.295      11.157      11.281      10.958      10.713      10.388    
  10.861      11.898      12.762      12.761      11.748      10.164      8.4866      6.9772      5.7766      4.9172    
  4.3709      4.0977      4.0751      4.3107      4.8384      5.6969      6.8910      8.3446      9.8739      11.164    
  11.715      11.404      11.582      10.649      10.221      10.649      11.582      12.238      11.996      10.831    
  9.2496      7.6625      6.2957      5.2579      4.5609      4.1690      4.0437      4.1691      4.5608      5.2578    
  6.2957      7.6626      9.2495      10.831      11.996      12.238      12.762      11.898      10.861      10.388    
  10.713      11.404      11.714      11.164      9.8741      8.3446      6.8908      5.6969      4.8386      4.3107    
  4.0750      4.0978      4.3711      4.9171      5.7765      6.9773      8.4867      10.164      11.748      12.761    
  13.421      13.277      12.350      11.321      10.819      10.958      11.281      11.157      10.295      8.9421    
  7.5056      6.2149      5.2097      4.5355      4.1752      4.0916      4.2579      4.6733      5.3642      6.3682    
  7.7006      9.3061      11.017      12.550      13.163      13.912      13.716      12.839      11.882      11.334    
  11.207      11.089      10.525      9.4225      8.0841      6.7739      5.6642      4.8522      4.3581      4.1576    
  4.2171      4.5171      5.0623      5.8789      6.9964      8.4135      10.053      11.731      12.231      13.514    