   2   2   0   0
  0.2001288E+02  0.3839590E-09  0.3839590E-09  0.3839590E-09  0.5000000E-15
  1.000000000000000E-004
  CAR 
 unknown system                          
     17.13357037     -8.12910111  301      6.10036648      1.00000000
     -8.129  0.0000E+00  0.0000E+00
     -8.045  0.0000E+00  0.0000E+00
     -7.961  0.0000E+00  0.0000E+00
     -7.876  0.0000E+00  0.0000E+00
     -7.792  0.0000E+00  0.0000E+00
     -7.708  0.0000E+00  0.0000E+00
     -7.624  0.0000E+00  0.0000E+00
     -7.540  0.0000E+00  0.0000E+00
     -7.455  0.0000E+00  0.0000E+00
     -7.371  0.0000E+00  0.0000E+00
     -7.287  0.5125E-18  0.4316E-19
     -7.203  0.7201E-16  0.6107E-17
     -7.119  0.5973E-14  0.5091E-15
     -7.034  0.3495E-12  0.2994E-13
     -6.950  0.1442E-10  0.1245E-11
     -6.866  0.4201E-09  0.3662E-10
     -6.782  0.8640E-08  0.7642E-09
     -6.698  0.1256E-06  0.1134E-07
     -6.613  0.1291E-05  0.1201E-06
     -6.529  0.9410E-05  0.9125E-06
     -6.445  0.4884E-04  0.5026E-05
     -6.361  0.1829E-03  0.2043E-04
     -6.277  0.5122E-03  0.6356E-04
     -6.192  0.1165E-02  0.1616E-03
     -6.108  0.2438E-02  0.3669E-03
     -6.024  0.4961E-02  0.7846E-03
     -5.940  0.9024E-02  0.1545E-02
     -5.855  0.1319E-01  0.2655E-02
     -5.771  0.1481E-01  0.3903E-02
     -5.687  0.1322E-01  0.5016E-02
     -5.603  0.1125E-01  0.5963E-02
     -5.519  0.1209E-01  0.6982E-02
     -5.434  0.1591E-01  0.8321E-02
     -5.350  0.2127E-01  0.1011E-01
     -5.266  0.2796E-01  0.1247E-01
     -5.182  0.3446E-01  0.1537E-01
     -5.098  0.3564E-01  0.1837E-01
     -5.013  0.2861E-01  0.2078E-01
     -4.929  0.1807E-01  0.2230E-01
     -4.845  0.1146E-01  0.2327E-01
     -4.761  0.1219E-01  0.2429E-01
     -4.677  0.1989E-01  0.2597E-01
     -4.592  0.3258E-01  0.2871E-01
     -4.508  0.4553E-01  0.3255E-01
     -4.424  0.5197E-01  0.3692E-01
     -4.340  0.4972E-01  0.4111E-01
     -4.255  0.4440E-01  0.4485E-01
     -4.171  0.4155E-01  0.4835E-01
     -4.087  0.3983E-01  0.5170E-01
     -4.003  0.3665E-01  0.5479E-01
     -3.919  0.3454E-01  0.5770E-01
     -3.834  0.3660E-01  0.6078E-01
     -3.750  0.4193E-01  0.6431E-01
     -3.666  0.4906E-01  0.6844E-01
     -3.582  0.5770E-01  0.7330E-01
     -3.498  0.6625E-01  0.7888E-01
     -3.413  0.7088E-01  0.8485E-01
     -3.329  0.6647E-01  0.9044E-01
     -3.245  0.5175E-01  0.9480E-01
     -3.161  0.3503E-01  0.9775E-01
     -3.077  0.2828E-01  0.1001E+00
     -2.992  0.3531E-01  0.1031E+00
     -2.908  0.4821E-01  0.1072E+00
     -2.824  0.5385E-01  0.1117E+00
     -2.740  0.4572E-01  0.1156E+00
     -2.656  0.3036E-01  0.1181E+00
     -2.571  0.1999E-01  0.1198E+00
     -2.487  0.2000E-01  0.1215E+00
     -2.403  0.2532E-01  0.1236E+00
     -2.319  0.2756E-01  0.1259E+00
     -2.234  0.2440E-01  0.1280E+00
     -2.150  0.2011E-01  0.1297E+00
     -2.066  0.1775E-01  0.1312E+00
     -1.982  0.1655E-01  0.1326E+00
     -1.898  0.1584E-01  0.1339E+00
     -1.813  0.1560E-01  0.1352E+00
     -1.729  0.1433E-01  0.1364E+00
     -1.645  0.1122E-01  0.1374E+00
     -1.561  0.8951E-02  0.1381E+00
     -1.477  0.1146E-01  0.1391E+00
     -1.392  0.1917E-01  0.1407E+00
     -1.308  0.2793E-01  0.1430E+00
     -1.224  0.3494E-01  0.1460E+00
     -1.140  0.4459E-01  0.1497E+00
     -1.056  0.6179E-01  0.1549E+00
     -0.971  0.7979E-01  0.1617E+00
     -0.887  0.8572E-01  0.1689E+00
     -0.803  0.7861E-01  0.1755E+00
     -0.719  0.7037E-01  0.1814E+00
     -0.635  0.6729E-01  0.1871E+00
     -0.550  0.6221E-01  0.1923E+00
     -0.466  0.4914E-01  0.1965E+00
     -0.382  0.3469E-01  0.1994E+00
     -0.298  0.2882E-01  0.2018E+00
     -0.213  0.3199E-01  0.2045E+00
     -0.129  0.3670E-01  0.2076E+00
     -0.045  0.3714E-01  0.2107E+00
      0.039  0.3457E-01  0.2136E+00
      0.123  0.3270E-01  0.2164E+00
      0.208  0.3057E-01  0.2190E+00
      0.292  0.2555E-01  0.2211E+00
      0.376  0.2052E-01  0.2229E+00
      0.460  0.2077E-01  0.2246E+00
      0.544  0.2528E-01  0.2267E+00
      0.629  0.2744E-01  0.2290E+00
      0.713  0.2490E-01  0.2311E+00
      0.797  0.2282E-01  0.2331E+00
      0.881  0.2501E-01  0.2352E+00
      0.965  0.2744E-01  0.2375E+00
      1.050  0.2471E-01  0.2396E+00
      1.134  0.1833E-01  0.2411E+00
      1.218  0.1362E-01  0.2422E+00
      1.302  0.1280E-01  0.2433E+00
      1.387  0.1592E-01  0.2447E+00
      1.471  0.2489E-01  0.2468E+00
      1.555  0.4054E-01  0.2502E+00
      1.639  0.5694E-01  0.2550E+00
      1.723  0.6418E-01  0.2604E+00
      1.808  0.5903E-01  0.2653E+00
      1.892  0.5156E-01  0.2697E+00
      1.976  0.5779E-01  0.2746E+00
      2.060  0.8174E-01  0.2814E+00
      2.144  0.1060E+00  0.2904E+00
      2.229  0.1072E+00  0.2994E+00
      2.313  0.8233E-01  0.3063E+00
      2.397  0.5231E-01  0.3107E+00
      2.481  0.4181E-01  0.3143E+00
      2.565  0.5999E-01  0.3193E+00
      2.650  0.9365E-01  0.3272E+00
      2.734  0.1144E+00  0.3368E+00
      2.818  0.1041E+00  0.3456E+00
      2.902  0.7592E-01  0.3520E+00
      2.986  0.5866E-01  0.3569E+00
      3.071  0.6380E-01  0.3623E+00
      3.155  0.7782E-01  0.3688E+00
      3.239  0.8420E-01  0.3759E+00
      3.323  0.8553E-01  0.3831E+00
      3.408  0.9645E-01  0.3913E+00
      3.492  0.1173E+00  0.4011E+00
      3.576  0.1292E+00  0.4120E+00
      3.660  0.1174E+00  0.4219E+00
      3.744  0.8971E-01  0.4295E+00
      3.829  0.6600E-01  0.4350E+00
      3.913  0.5880E-01  0.4400E+00
      3.997  0.6793E-01  0.4457E+00
      4.081  0.8657E-01  0.4530E+00
      4.165  0.1060E+00  0.4619E+00
      4.250  0.1169E+00  0.4717E+00
      4.334  0.1107E+00  0.4811E+00
      4.418  0.8640E-01  0.4883E+00
      4.502  0.5641E-01  0.4931E+00
      4.586  0.3771E-01  0.4963E+00
      4.671  0.3661E-01  0.4993E+00
      4.755  0.4687E-01  0.5033E+00
      4.839  0.5750E-01  0.5081E+00
      4.923  0.5874E-01  0.5131E+00
      5.007  0.4753E-01  0.5171E+00
      5.092  0.3007E-01  0.5196E+00
      5.176  0.1633E-01  0.5210E+00
      5.260  0.1240E-01  0.5220E+00
      5.344  0.1791E-01  0.5235E+00
      5.429  0.2666E-01  0.5258E+00
      5.513  0.3005E-01  0.5283E+00
      5.597  0.2463E-01  0.5304E+00
      5.681  0.1519E-01  0.5317E+00
      5.765  0.8109E-02  0.5324E+00
      5.850  0.4856E-02  0.5328E+00
      5.934  0.3359E-02  0.5330E+00
      6.018  0.2128E-02  0.5332E+00
      6.102  0.1307E-02  0.5333E+00
      6.186  0.1546E-02  0.5335E+00
      6.271  0.3134E-02  0.5337E+00
      6.355  0.5582E-02  0.5342E+00
      6.439  0.7942E-02  0.5349E+00
      6.523  0.1033E-01  0.5357E+00
      6.607  0.1422E-01  0.5369E+00
      6.692  0.1974E-01  0.5386E+00
      6.776  0.2467E-01  0.5407E+00
      6.860  0.2810E-01  0.5430E+00
      6.944  0.3188E-01  0.5457E+00
      7.029  0.3635E-01  0.5488E+00
      7.113  0.3926E-01  0.5521E+00
      7.197  0.4011E-01  0.5555E+00
      7.281  0.3980E-01  0.5588E+00
      7.365  0.3673E-01  0.5619E+00
      7.450  0.2951E-01  0.5644E+00
      7.534  0.2182E-01  0.5662E+00
      7.618  0.2021E-01  0.5679E+00
      7.702  0.2936E-01  0.5704E+00
      7.786  0.5082E-01  0.5747E+00
      7.871  0.8180E-01  0.5816E+00
      7.955  0.1110E+00  0.5909E+00
      8.039  0.1218E+00  0.6012E+00
      8.123  0.1087E+00  0.6103E+00
      8.207  0.8744E-01  0.6177E+00
      8.292  0.8228E-01  0.6246E+00
      8.376  0.1009E+00  0.6331E+00
      8.460  0.1257E+00  0.6437E+00
      8.544  0.1308E+00  0.6547E+00
      8.628  0.1101E+00  0.6640E+00
      8.713  0.8374E-01  0.6710E+00
      8.797  0.7531E-01  0.6774E+00
      8.881  0.8483E-01  0.6845E+00
      8.965  0.9189E-01  0.6923E+00
      9.050  0.8595E-01  0.6995E+00
      9.134  0.7950E-01  0.7062E+00
      9.218  0.8652E-01  0.7135E+00
      9.302  0.1020E+00  0.7221E+00
      9.386  0.1107E+00  0.7314E+00
      9.471  0.1107E+00  0.7407E+00
      9.555  0.1167E+00  0.7505E+00
      9.639  0.1378E+00  0.7622E+00
      9.723  0.1595E+00  0.7756E+00
      9.807  0.1605E+00  0.7891E+00
      9.892  0.1381E+00  0.8007E+00
      9.976  0.1062E+00  0.8097E+00
     10.060  0.7594E-01  0.8161E+00
     10.144  0.5348E-01  0.8206E+00
     10.228  0.4566E-01  0.8244E+00
     10.313  0.5347E-01  0.8289E+00
     10.397  0.6649E-01  0.8345E+00
     10.481  0.7419E-01  0.8408E+00
     10.565  0.7697E-01  0.8472E+00
     10.649  0.7891E-01  0.8539E+00
     10.734  0.7732E-01  0.8604E+00
     10.818  0.6678E-01  0.8660E+00
     10.902  0.4825E-01  0.8701E+00
     10.986  0.2986E-01  0.8726E+00
     11.071  0.2161E-01  0.8744E+00
     11.155  0.2999E-01  0.8769E+00
     11.239  0.5324E-01  0.8814E+00
     11.323  0.8007E-01  0.8882E+00
     11.407  0.9875E-01  0.8965E+00
     11.492  0.1075E+00  0.9055E+00
     11.576  0.1087E+00  0.9147E+00
     11.660  0.9929E-01  0.9231E+00
     11.744  0.7914E-01  0.9297E+00
     11.828  0.6122E-01  0.9349E+00
     11.913  0.6040E-01  0.9400E+00
     11.997  0.7541E-01  0.9463E+00
     12.081  0.9166E-01  0.9540E+00
     12.165  0.9929E-01  0.9624E+00
     12.249  0.1022E+00  0.9710E+00
     12.334  0.1116E+00  0.9804E+00
     12.418  0.1296E+00  0.9913E+00
     12.502  0.1399E+00  0.1003E+01
     12.586  0.1248E+00  0.1014E+01
     12.670  0.8809E-01  0.1021E+01
     12.755  0.4907E-01  0.1025E+01
     12.839  0.2162E-01  0.1027E+01
     12.923  0.7563E-02  0.1028E+01
     13.007  0.2519E-02  0.1028E+01
     13.092  0.2240E-02  0.1028E+01
     13.176  0.4447E-02  0.1028E+01
     13.260  0.7467E-02  0.1029E+01
     13.344  0.9366E-02  0.1030E+01
     13.428  0.9506E-02  0.1031E+01
     13.513  0.9292E-02  0.1031E+01
     13.597  0.9702E-02  0.1032E+01
     13.681  0.9884E-02  0.1033E+01
     13.765  0.9888E-02  0.1034E+01
     13.849  0.1238E-01  0.1035E+01
     13.934  0.1881E-01  0.1036E+01
     14.018  0.2513E-01  0.1039E+01
     14.102  0.2518E-01  0.1041E+01
     14.186  0.1863E-01  0.1042E+01
     14.270  0.1208E-01  0.1043E+01
     14.355  0.1212E-01  0.1044E+01
     14.439  0.1975E-01  0.1046E+01
     14.523  0.2989E-01  0.1049E+01
     14.607  0.3543E-01  0.1051E+01
     14.692  0.3366E-01  0.1054E+01
     14.776  0.2811E-01  0.1057E+01
     14.860  0.2352E-01  0.1059E+01
     14.944  0.2123E-01  0.1060E+01
     15.028  0.2009E-01  0.1062E+01
     15.113  0.1869E-01  0.1064E+01
     15.197  0.1568E-01  0.1065E+01
     15.281  0.1076E-01  0.1066E+01
     15.365  0.5603E-02  0.1066E+01
     15.449  0.2130E-02  0.1067E+01
     15.534  0.5807E-03  0.1067E+01
     15.618  0.1126E-03  0.1067E+01
     15.702  0.1548E-04  0.1067E+01
     15.786  0.1507E-05  0.1067E+01
     15.870  0.1037E-06  0.1067E+01
     15.955  0.5041E-08  0.1067E+01
     16.039  0.1731E-09  0.1067E+01
     16.123  0.4194E-11  0.1067E+01
     16.207  0.7167E-13  0.1067E+01
     16.291  0.8672E-15  0.1067E+01
     16.376  0.6150E-17  0.1067E+01
     16.460  0.0000E+00  0.1067E+01
     16.544  0.0000E+00  0.1067E+01
     16.628  0.0000E+00  0.1067E+01
     16.713  0.0000E+00  0.1067E+01
     16.797  0.0000E+00  0.1067E+01
     16.881  0.0000E+00  0.1067E+01
     16.965  0.0000E+00  0.1067E+01
     17.049  0.0000E+00  0.1067E+01
     17.134  0.0000E+00  0.1067E+01
