    2    2   15    1
  0.2001288E+02  0.3839590E-09  0.3839590E-09  0.3839590E-09  0.5000000E-15
  1.000000000000000E-004
  CAR 
 unknown system                          
      8     20      8
 
  0.0000000E+00  0.0000000E+00  0.0000000E+00  0.2915452E-02
    1       -6.129101   1.000000
    2        5.835175   0.969616
    3        5.835205   0.969602
    4        5.835205   0.969602
    5        8.402967   0.000000
    6        8.402994   0.000000
    7        8.402994   0.000000
    8        9.209572   0.000000
 
  0.1428571E+00 -0.2862800E-17 -0.1748977E-16  0.2332362E-01
    1       -5.862845   1.000000
    2        3.902925   1.000000
    3        5.476599   0.999995
    4        5.476630   0.999995
    5        8.279591   0.000000
    6        8.923425   0.000000
    7        8.923463   0.000000
    8       10.868580   0.000000
 
  0.2857143E+00 -0.2269120E-16  0.9741634E-17  0.2332362E-01
    1       -5.095414   1.000000
    2        1.280614   1.000000
    3        4.960963   1.000000
    4        4.960995   1.000000
    5        7.743499   0.000000
    6        9.375222   0.000000
    7        9.375287   0.000000
    8       13.301430   0.000000
 
  0.4285714E+00 -0.2759730E-17  0.1159403E-16  0.2332362E-01
    1       -4.052455   1.000000
    2       -0.754083   1.000000
    3        4.672444   1.000000
    4        4.672475   1.000000
    5        7.418180   0.000000
    6        9.220366   0.000000
    7        9.220435   0.000000
    8       13.621899   0.000000
 
  0.1428571E+00  0.1428571E+00  0.4108522E-18  0.1749271E-01
    1       -5.772777   1.000000
    2        4.204982   1.000000
    3        4.860749   1.000000
    4        4.860770   1.000000
    5        7.717688   0.000000
    6        9.811239   0.000000
    7        9.811260   0.000000
    8       10.274829   0.000000
 
  0.2857143E+00  0.1428571E+00 -0.8512426E-17  0.6997085E-01
    1       -5.165097   1.000000
    2        2.077319   1.000000
    3        4.279962   1.000000
    4        4.318049   1.000000
    5        7.913397   0.000000
    6        9.756355   0.000000
    7       10.396535   0.000000
    8       10.596353   0.000000
 
  0.4285714E+00  0.1428571E+00  0.6714690E-17  0.6997085E-01
    1       -4.154319   1.000000
    2       -0.111939   1.000000
    3        3.590786   1.000000
    4        4.129521   1.000000
    5        7.979937   0.000000
    6        9.668019   0.000000
    7       10.374816   0.000000
    8       11.628258   0.000000
 
 -0.4285714E+00  0.1428571E+00 -0.2538985E-16  0.6997085E-01
    1       -3.593513   1.000000
    2       -0.979000   1.000000
    3        3.175513   1.000000
    4        4.328051   1.000000
    5        8.082613   0.000000
    6        9.573954   0.000000
    7        9.976805   0.000000
    8       14.020460   0.000000
 
 -0.2857143E+00  0.1428571E+00 -0.5704498E-17  0.6997085E-01
    1       -4.523648   1.000000
    2        0.569779   1.000000
    3        3.177877   1.000000
    4        4.843259   1.000000
    5        8.491060   0.000000
    6        9.740245   0.000000
    7        9.771761   0.000000
    8       12.501737   0.000000
 
 -0.1428571E+00  0.1428571E+00 -0.5725601E-17  0.3498542E-01
    1       -5.426071   1.000000
    2        2.698184   1.000000
    3        3.866303   1.000000
    4        5.436828   0.999999
    5        8.902299   0.000000
    6        9.134313   0.000000
    7        9.394520   0.000000
    8       11.478856   0.000000
 
  0.2857143E+00  0.2857143E+00  0.8217044E-18  0.1749271E-01
    1       -4.720605   1.000000
    2        1.676761   1.000000
    3        3.694680   1.000000
    4        3.694699   1.000000
    5        6.765525   0.000001
    6        8.447611   0.000000
    7       12.238816   0.000000
    8       12.238841   0.000000
 
  0.4285714E+00  0.2857143E+00 -0.5710699E-17  0.6997085E-01
    1       -3.816506   1.000000
    2        0.170675   1.000000
    3        2.713943   1.000000
    4        3.434805   1.000000
    5        7.048761   0.000000
    6        8.536508   0.000000
    7       12.470353   0.000000
    8       12.628486   0.000000
 
 -0.4285714E+00  0.2857143E+00  0.1028864E-16  0.6997085E-01
    1       -2.895835   1.000000
    2       -1.012121   1.000000
    3        1.758562   1.000000
    4        3.604064   1.000000
    5        7.288931   0.000000
    6       10.783352   0.000000
    7       12.124182   0.000000
    8       12.210327   0.000000
 
 -0.2857143E+00  0.2857143E+00 -0.7704199E-17  0.3498542E-01
    1       -3.548006   1.000000
    2       -0.259029   1.000000
    3        1.683485   1.000000
    4        4.154901   1.000000
    5        7.900191   0.000000
    6       11.303142   0.000000
    7       11.634614   0.000000
    8       12.468998   0.000000
 
  0.4285714E+00  0.4285714E+00  0.1232557E-17  0.1749271E-01
    1       -3.031144   1.000000
    2       -0.828019   1.000000
    3        3.062418   1.000000
    4        3.062436   1.000000
    5        6.406540   0.015195
    6        6.921996   0.000000
    7       14.903283   0.000000
    8       14.903310   0.000000
 
 -0.4285714E+00  0.4285714E+00 -0.5519460E-17  0.3498542E-01
    1       -2.078370   1.000000
    2       -1.789506   1.000000
    3        2.164913   1.000000
    4        3.124237   1.000000
    5        6.708784   0.000008
    6        7.971623   0.000000
    7       14.678603   0.000000
    8       15.133570   0.000000
 
  0.4285714E+00  0.2857143E+00  0.1428571E+00  0.6997085E-01
    1       -4.411245   1.000000
    2        0.937813   1.000000
    3        2.716739   1.000000
    4        4.045900   1.000000
    5        8.421562   0.000000
    6        9.675896   0.000000
    7        9.984263   0.000000
    8       11.991033   0.000000
 
 -0.4285714E+00  0.2857143E+00  0.1428571E+00  0.1399417E+00
    1       -3.366620   1.000000
    2       -0.598752   1.000000
    3        2.144861   1.000000
    4        3.506787   1.000000
    5        8.906650   0.000000
    6        9.323853   0.000000
    7       11.315529   0.000000
    8       12.443854   0.000000
 
 -0.4285714E+00  0.4285714E+00  0.1428571E+00  0.6997085E-01
    1       -2.825339   1.000000
    2       -0.913758   1.000000
    3        2.232161   1.000000
    4        2.643575   1.000000
    5        8.047285   0.000000
    6        8.414044   0.000000
    7       12.000854   0.000000
    8       14.528604   0.000000
 
 -0.2857143E+00  0.4285714E+00  0.1428571E+00  0.6997085E-01
    1       -2.386466   1.000000
    2       -1.311945   1.000000
    3        1.590219   1.000000
    4        2.735891   1.000000
    5        8.574238   0.000000
    6       10.678508   0.000000
    7       11.496935   0.000000
    8       11.633988   0.000000
