 running on    8 total cores
 distrk:  each k-point on    8 cores,    1 groups
 distr:  one band on    1 cores,    8 groups
 using from now: INCAR     
 vasp.5.4.4.18Apr17-6-g9f103f2a35 (build Dec 09 2018 21:25:21) complex          
  
 POSCAR found type information on POSCAR  Si
 POSCAR found :  1 types and       2 ions
 scaLAPACK will be used

 ----------------------------------------------------------------------------- 
|                                                                             |
|           W    W    AA    RRRRR   N    N  II  N    N   GGGG   !!!           |
|           W    W   A  A   R    R  NN   N  II  NN   N  G    G  !!!           |
|           W    W  A    A  R    R  N N  N  II  N N  N  G       !!!           |
|           W WW W  AAAAAA  RRRRR   N  N N  II  N  N N  G  GGG   !            |
|           WW  WW  A    A  R   R   N   NN  II  N   NN  G    G                |
|           W    W  A    A  R    R  N    N  II  N    N   GGGG   !!!           |
|                                                                             |
|      For optimal performance we recommend to set                            |
|        NCORE= 4 - approx SQRT( number of cores)                             |
|      NCORE specifies how many cores store one orbital (NPAR=cpu/NCORE).     |
|      This setting can  greatly improve the performance of VASP for DFT.     |
|      The default,   NCORE=1            might be grossly inefficient         |
|      on modern multi-core architectures or massively parallel machines.     |
|      Do your own testing !!!!                                               |
|      Unfortunately you need to use the default for GW and RPA calculations. |
|      (for HF NCORE is supported but not extensively tested yet)             |
|                                                                             |
 ----------------------------------------------------------------------------- 

 LDA part: xc-table for Pade appr. of Perdew
 POSCAR, INCAR and KPOINTS ok, starting setup
 FFT: planning ...
 WAVECAR not read
 entering main loop
       N       E                     dE             d eps       ncg     rms          rms(c)
DAV:   1     0.318696506408E+01    0.31870E+01   -0.26365E+03   320   0.527E+02
DAV:   2    -0.108541687390E+02   -0.14041E+02   -0.13266E+02   504   0.692E+01
DAV:   3    -0.110099368291E+02   -0.15577E+00   -0.15577E+00   400   0.962E+00
DAV:   4    -0.110105133093E+02   -0.57648E-03   -0.57648E-03   544   0.603E-01
DAV:   5    -0.110105135158E+02   -0.20655E-06   -0.20631E-06   384   0.892E-03    0.302E+00
DAV:   6    -0.108848235362E+02    0.12569E+00   -0.82826E-02   416   0.150E+00    0.179E+00
DAV:   7    -0.108273831021E+02    0.57440E-01   -0.15204E-01   392   0.216E+00    0.155E-01
DAV:   8    -0.108287350905E+02   -0.13520E-02   -0.41811E-03   360   0.482E-01    0.247E-02
DAV:   9    -0.108288268777E+02   -0.91787E-04   -0.96690E-05   304   0.792E-02
   1 F= -.10828827E+02 E0= -.10828647E+02  d E =-.108288E+02
 curvature:   0.00 expect dE= 0.000E+00 dE for cont linesearch  0.000E+00
 trial: gam= 0.00000 g(F)=  0.460E-45 g(S)=  0.000E+00 ort = 0.000E+00 (trialstep = 0.100E+01)
 search vector abs. value=  0.100E-09
 reached required accuracy - stopping structural energy minimisation
 writing wavefunctions
