unknown system                          
   1.00000000000000     
     0.000000    2.925700    2.925700
     2.925700    0.000000    2.925700
     2.925700    2.925700    0.000000
   Si
     2
Direct
  0.000000  0.000000  0.000000
  0.250000  0.250000  0.250000
 
   40   40   40
 -8.5261     -6.9960     -2.7958      3.0413      9.1852      14.411      17.905      19.398      19.123      17.664    
  15.723      13.761      11.945      10.370      9.0715      8.0424      7.2540      6.6729      6.2724      6.0367    
  5.9588      6.0367      6.2724      6.6729      7.2540      8.0424      9.0715      10.370      11.945      13.761    
  15.723      17.664      19.123      19.398      17.905      14.411      9.1851      3.0413     -2.7958     -6.9960    
 -6.9960     -3.9737      1.2866      7.5005      13.312      17.678      20.080      20.550      19.546      17.745    
  15.769      13.871      12.173      10.733      9.5658      8.6510      7.9578      7.4574      7.1307      6.9686    
  6.9686      7.1306      7.4574      7.9578      8.6510      9.5658      10.733      12.173      13.871      15.769    
  17.745      19.546      20.550      20.080      17.677      13.312      7.5005      1.2866     -3.9737     -6.9960    
 -2.7958      1.2866      6.8862      12.663      17.435      20.470      21.588      21.082      19.544      17.636    
  15.733      13.977      12.448      11.178      10.160      9.3688      8.7759      8.3604      8.1123      8.0296    
  8.1123      8.3604      8.7759      9.3688      10.160      11.178      12.448      13.976      15.733      17.636    
  19.544      21.082      21.588      20.470      17.435      12.663      6.8862      1.2866     -2.7957     -4.2927    
  3.0413      7.5005      12.663      17.335      20.644      22.217      22.168      20.962      19.217      17.393    
  15.658      14.109      12.790      11.710      10.850      10.183      9.6899      9.3599      9.1934      9.1934    
  9.3599      9.6899      10.183      10.850      11.710      12.790      14.109      15.658      17.393      19.217    
  20.962      22.168      22.217      20.644      17.335      12.663      7.5005      3.0415     0.45060     0.45054    
  9.1852      13.312      17.435      20.644      22.428      22.731      21.871      20.371      18.710      17.082    
  15.591      14.293      13.206      12.320      11.612      11.063      10.663      10.416      10.333      10.416    
  10.663      11.063      11.612      12.320      13.206      14.293      15.591      17.082      18.710      20.371    
  21.871      22.731      22.428      20.644      17.435      13.312      9.1852      6.1221      4.9897      6.1222    
  14.411      17.678      20.470      22.217      22.731      22.183      20.982      19.559      18.119      16.767    
  15.565      14.538      13.681      12.977      12.405      11.957      11.642      11.477      11.477      11.642    
  11.957      12.405      12.977      13.681      14.538      15.565      16.767      18.119      19.559      20.982    
  22.183      22.731      22.217      20.470      17.677      14.411      11.504      9.7895      9.7896      11.504    
  17.905      20.080      21.588      22.168      21.871      20.982      19.853      18.666      17.524      16.490    
  15.591      14.828      14.181      13.630      13.168      12.804      12.567      12.484      12.567      12.804    
  13.168      13.630      14.181      14.828      15.591      16.490      17.524      18.666      19.853      20.982    
  21.871      22.168      21.588      20.080      17.905      15.608      13.855      13.200      13.856      15.608    
  19.398      20.550      21.082      20.962      20.371      19.559      18.666      17.786      16.977      16.268    
  15.658      15.127      14.651      14.217      13.836      13.543      13.382      13.382      13.543      13.836    
  14.217      14.651      15.127      15.658      16.268      16.977      17.786      18.666      19.559      20.371    
  20.962      21.082      20.550      19.398      17.896      16.489      15.639      15.639      16.489      17.896    
  19.123      19.546      19.544      19.217      18.710      18.119      17.524      16.977      16.502      16.095    
  15.733      15.385      15.030      14.675      14.356      14.129      14.046      14.129      14.356      14.675    
  15.030      15.385      15.733      16.095      16.502      16.977      17.524      18.119      18.710      19.217    
  19.544      19.546      19.123      18.343      17.433      16.706      16.428      16.706      17.433      18.343    
  17.664      17.745      17.636      17.393      17.082      16.767      16.490      16.268      16.095      15.941    
  15.769      15.546      15.267      14.963      14.692      14.529      14.529      14.692      14.963      15.267    
  15.546      15.769      15.941      16.095      16.268      16.490      16.767      17.082      17.393      17.636    
  17.745      17.664      17.353      16.877      16.397      16.095      16.095      16.397      16.877      17.353    
  15.723      15.769      15.733      15.658      15.591      15.565      15.591      15.658      15.733      15.769    
  15.723      15.574      15.335      15.056      14.829      14.741      14.829      15.056      15.335      15.574    
  15.723      15.769      15.733      15.658      15.591      15.565      15.591      15.658      15.733      15.769    
  15.723      15.574      15.335      15.056      14.829      14.741      14.829      15.056      15.335      15.574    
  13.761      13.871      13.977      14.109      14.293      14.538      14.828      15.127      15.385      15.546    
  15.574      15.460      15.232      14.980      14.816      14.816      14.980      15.232      15.460      15.574    
  15.546      15.385      15.127      14.828      14.538      14.293      14.109      13.976      13.871      13.761    
  13.617      13.433      13.229      13.050      12.943      12.943      13.050      13.229      13.433      13.617    
  11.945      12.173      12.448      12.790      13.206      13.681      14.181      14.651      15.030      15.267    
  15.335      15.232      15.024      14.827      14.747      14.827      15.024      15.232      15.335      15.267    
  15.030      14.651      14.181      13.681      13.206      12.790      12.448      12.173      11.945      11.741    
  11.544      11.353      11.184      11.065      11.022      11.065      11.184      11.353      11.544      11.741    
  10.370      10.733      11.178      11.710      12.320      12.977      13.630      14.217      14.675      14.963    
  15.056      14.980      14.827      14.712      14.712      14.827      14.980      15.056      14.963      14.675    
  14.217      13.630      12.977      12.320      11.710      11.178      10.733      10.370      10.071      9.8173    
  9.5987      9.4156      9.2795      9.2059      9.2059      9.2795      9.4156      9.5987      9.8173      10.071    
  9.0715      9.5658      10.160      10.850      11.612      12.405      13.168      13.836      14.356      14.692    
  14.829      14.816      14.747      14.712      14.747      14.816      14.829      14.692      14.356      13.836    
  13.168      12.405      11.612      10.850      10.160      9.5658      9.0715      8.6673      8.3374      8.0675    
  7.8500      7.6858      7.5819      7.5462      7.5819      7.6858      7.8500      8.0675      8.3374      8.6673    
  8.0424      8.6510      9.3688      10.183      11.063      11.957      12.804      13.543      14.129      14.529    
  14.741      14.816      14.827      14.827      14.816      14.741      14.529      14.129      13.543      12.804    
  11.957      11.063      10.183      9.3688      8.6510      8.0424      7.5401      7.1315      6.8019      6.5397    
  6.3397      6.2026      6.1324      6.1324      6.2026      6.3397      6.5398      6.8019      7.1315      7.5400    
  7.2540      7.9578      8.7759      9.6899      10.663      11.642      12.567      13.382      14.046      14.529    
  14.829      14.980      15.024      14.980      14.829      14.529      14.046      13.382      12.567      11.642    
  10.663      9.6900      8.7760      7.9578      7.2540      6.6664      6.1859      5.7982      5.4900      5.2520    
  5.0809      4.9769      4.9419      4.9769      5.0809      5.2520      5.4899      5.7982      6.1859      6.6664    
  6.6729      7.4574      8.3604      9.3599      10.416      11.477      12.484      13.382      14.129      14.692    
  15.056      15.232      15.232      15.056      14.692      14.129      13.382      12.484      11.477      10.416    
  9.3599      8.3604      7.4574      6.6728      6.0120      5.4680      5.0274      4.6758      4.4018      4.1983    
  4.0625      3.9944      3.9944      4.0625      4.1982      4.4017      4.6758      5.0274      5.4681      6.0121    
  6.2724      7.1307      8.1123      9.1934      10.333      11.477      12.567      13.543      14.356      14.963    
  15.335      15.460      15.335      14.963      14.356      13.543      12.567      11.477      10.333      9.1933    
  8.1123      7.1307      6.2724      5.5451      4.9432      4.4538      4.0617      3.7538      3.5204      3.3559    
  3.2578      3.2251      3.2578      3.3559      3.5204      3.7538      4.0618      4.4538      4.9432      5.5451    
  6.0367      6.9686      8.0296      9.1934      10.416      11.642      12.804      13.836      14.675      15.267    
  15.574      15.574      15.267      14.675      13.836      12.804      11.642      10.416      9.1933      8.0296    
  6.9686      6.0367      5.2434      4.5843      4.0466      3.6146      3.2734      3.0115      2.8205      2.6954    
  2.6334      2.6334      2.6954      2.8205      3.0115      3.2735      3.6146      4.0466      4.5842      5.2434    
  5.9588      6.9686      8.1123      9.3599      10.663      11.957      13.168      14.217      15.030      15.546    
  15.723      15.546      15.030      14.217      13.168      11.957      10.663      9.3599      8.1123      6.9686    
  5.9588      5.0949      4.3742      3.7846      3.3097      2.9332      2.6417      2.4247      2.2746      2.1865    
  2.1574      2.1865      2.2746      2.4247      2.6418      2.9333      3.3097      3.7846      4.3742      5.0949    
  6.0367      7.1306      8.3604      9.6899      11.063      12.405      13.630      14.651      15.385      15.769    
  15.769      15.385      14.651      13.630      12.405      11.063      9.6900      8.3604      7.1307      6.0367    
  5.0949      4.3050      3.6560      3.1317      2.7149      2.3902      2.1452      1.9701      1.8576      1.8026    
  1.8026      1.8576      1.9701      2.1452      2.3902      2.7149      3.1317      3.6560      4.3050      5.0949    
  6.2724      7.4574      8.7759      10.183      11.612      12.977      14.181      15.127      15.733      15.941    
  15.733      15.127      14.181      12.977      11.612      10.183      8.7760      7.4574      6.2724      5.2434    
  4.3742      3.6560      3.0731      2.6079      2.2439      1.9666      1.7642      1.6270      1.5478      1.5219    
  1.5478      1.6270      1.7642      1.9666      2.2439      2.6079      3.0731      3.6560      4.3742      5.2434    
  6.6729      7.9578      9.3688      10.850      12.320      13.681      14.828      15.658      16.095      16.095    
  15.658      14.828      13.681      12.320      10.850      9.3688      7.9578      6.6728      5.5451      4.5843    
  3.7846      3.1317      2.6079      2.1958      1.8795      1.6450      1.4808      1.3770      1.3270      1.3270    
  1.3771      1.4808      1.6450      1.8794      2.1958      2.6079      3.1317      3.7846      4.5842      5.5451    
  7.2540      8.6510      10.160      11.710      13.206      14.538      15.591      16.268      16.502      16.268    
  15.591      14.538      13.206      11.710      10.160      8.6510      7.2540      6.0120      4.9432      4.0466    
  3.3097      2.7149      2.2439      1.8795      1.6060      1.4099      1.2792      1.2047      1.1806      1.2047    
  1.2792      1.4099      1.6060      1.8794      2.2439      2.7149      3.3097      4.0466      4.9432      6.0120    
  8.0424      9.5658      11.178      12.790      14.293      15.565      16.490      16.977      16.977      16.490    
  15.565      14.293      12.790      11.178      9.5658      8.0424      6.6664      5.4680      4.4538      3.6146    
  2.9332      2.3902      1.9666      1.6450      1.4099      1.2473      1.1459      1.0974      1.0974      1.1459    
  1.2473      1.4099      1.6450      1.9666      2.3902      2.9333      3.6146      4.4538      5.4681      6.6664    
  9.0715      10.733      12.448      14.109      15.591      16.767      17.524      17.786      17.524      16.767    
  15.591      14.109      12.448      10.733      9.0715      7.5401      6.1859      5.0274      4.0617      3.2734    
  2.6417      2.1452      1.7642      1.4808      1.2792      1.1459      1.0705      1.0461      1.0705      1.1459    
  1.2792      1.4808      1.7642      2.1453      2.6418      3.2735      4.0618      5.0274      6.1859      7.5401    
  10.370      12.173      13.976      15.658      17.082      18.119      18.666      18.666      18.119      17.082    
  15.658      13.976      12.173      10.370      8.6673      7.1315      5.7982      4.6758      3.7538      3.0115    
  2.4247      1.9701      1.6270      1.3770      1.2047      1.0974      1.0461      1.0461      1.0974      1.2047    
  1.3770      1.6270      1.9701      2.4247      3.0115      3.7538      4.6758      5.7982      7.1315      8.6673    
  11.945      13.871      15.733      17.393      18.710      19.559      19.853      19.559      18.710      17.393    
  15.733      13.871      11.945      10.071      8.3374      6.8019      5.4900      4.4018      3.5204      2.8205    
  2.2746      1.8576      1.5478      1.3270      1.1806      1.0974      1.0705      1.0974      1.1806      1.3270    
  1.5478      1.8576      2.2746      2.8205      3.5204      4.4017      5.4899      6.8019      8.3374      10.071    
  13.761      15.769      17.636      19.217      20.371      20.982      20.982      20.371      19.217      17.636    
  15.769      13.761      11.741      9.8173      8.0675      6.5397      5.2520      4.1983      3.3559      2.6954    
  2.1865      1.8026      1.5219      1.3270      1.2047      1.1459      1.1459      1.2047      1.3270      1.5219    
  1.8026      2.1865      2.6954      3.3559      4.1982      5.2520      6.5398      8.0676      9.8173      11.741    
  15.723      17.745      19.544      20.962      21.871      22.183      21.871      20.962      19.544      17.745    
  15.723      13.617      11.544      9.5987      7.8500      6.3397      5.0809      4.0625      3.2578      2.6334    
  2.1574      1.8026      1.5478      1.3771      1.2792      1.2473      1.2792      1.3770      1.5478      1.8026    
  2.1574      2.6334      3.2578      4.0625      5.0809      6.3397      7.8500      9.5987      11.544      13.617    
  17.664      19.546      21.082      22.168      22.731      22.731      22.168      21.082      19.546      17.664    
  15.574      13.433      11.353      9.4156      7.6858      6.2026      4.9769      3.9944      3.2251      2.6334    
  2.1865      1.8576      1.6270      1.4808      1.4099      1.4099      1.4808      1.6270      1.8576      2.1865    
  2.6334      3.2251      3.9944      4.9769      6.2026      7.6858      9.4156      11.353      13.433      15.574    
  19.123      20.550      21.588      22.217      22.428      22.217      21.588      20.550      19.123      17.353    
  15.335      13.229      11.184      9.2795      7.5819      6.1324      4.9419      3.9944      3.2578      2.6954    
  2.2746      1.9701      1.7642      1.6450      1.6060      1.6450      1.7642      1.9701      2.2746      2.6954    
  3.2578      3.9944      4.9419      6.1324      7.5819      9.2795      11.184      13.229      15.335      17.353    
  19.398      20.080      20.470      20.644      20.644      20.470      20.080      19.398      18.343      16.877    
  15.056      13.050      11.065      9.2059      7.5462      6.1324      4.9769      4.0625      3.3559      2.8205    
  2.4247      2.1452      1.9666      1.8794      1.8794      1.9666      2.1453      2.4247      2.8205      3.3559    
  4.0625      4.9769      6.1324      7.5462      9.2059      11.065      13.050      15.056      16.877      18.343    
  17.905      17.677      17.435      17.335      17.435      17.677      17.905      17.896      17.433      16.397    
  14.829      12.943      11.022      9.2059      7.5819      6.2026      5.0809      4.1982      3.5204      3.0115    
  2.6418      2.3902      2.2439      2.1958      2.2439      2.3902      2.6418      3.0115      3.5204      4.1982    
  5.0809      6.2026      7.5819      9.2059      11.022      12.943      14.829      16.397      17.433      17.896    
  14.411      13.312      12.663      12.663      13.312      14.411      15.608      16.489      16.706      16.095    
  14.741      12.943      11.065      9.2795      7.6858      6.3397      5.2520      4.4017      3.7538      3.2735    
  2.9333      2.7149      2.6079      2.6079      2.7149      2.9333      3.2735      3.7538      4.4017      5.2520    
  6.3397      7.6858      9.2795      11.065      12.943      14.741      16.095      16.706      16.489      15.608    
  9.1851      7.5005      6.8862      7.5005      9.1852      11.504      13.855      15.639      16.428      16.095    
  14.829      13.050      11.184      9.4156      7.8500      6.5398      5.4899      4.6758      4.0618      3.6146    
  3.3097      3.1317      3.0731      3.1317      3.3097      3.6146      4.0618      4.6758      5.4899      6.5398    
  7.8500      9.4156      11.184      13.050      14.829      16.095      16.428      15.639      13.855      11.504    
  3.0413      1.2866      1.2866      3.0415      6.1221      9.7895      13.200      15.639      16.706      16.397    
  15.056      13.229      11.353      9.5987      8.0675      6.8019      5.7982      5.0274      4.4538      4.0466    
  3.7846      3.6560      3.6560      3.7846      4.0466      4.4538      5.0274      5.7982      6.8019      8.0676    
  9.5987      11.353      13.229      15.056      16.397      16.706      15.639      13.200      9.7895      6.1220    
 -2.7958     -3.9737     -2.7957     0.45060      4.9897      9.7896      13.856      16.489      17.433      16.877    
  15.335      13.433      11.544      9.8173      8.3374      7.1315      6.1859      5.4681      4.9432      4.5842    
  4.3742      4.3050      4.3742      4.5842      4.9432      5.4681      6.1859      7.1315      8.3374      9.8173    
  11.544      13.433      15.335      16.877      17.433      16.489      13.855      9.7895      4.9897     0.45055    
 -6.9960     -6.9960     -4.2927     0.45054      6.1222      11.504      15.608      17.896      18.343      17.353    
  15.574      13.617      11.741      10.071      8.6673      7.5400      6.6664      6.0121      5.5451      5.2434    
  5.0949      5.0949      5.2434      5.5451      6.0120      6.6664      7.5401      8.6673      10.071      11.741    
  13.617      15.574      17.353      18.343      17.896      15.608      11.504      6.1220     0.45055     -4.2926    
 -6.9960     -3.9737      1.2866      7.5005      13.312      17.678      20.080      20.550      19.546      17.745    
  15.769      13.871      12.173      10.733      9.5658      8.6510      7.9578      7.4574      7.1307      6.9686    
  6.9686      7.1306      7.4574      7.9578      8.6510      9.5658      10.733      12.173      13.871      15.769    
  17.745      19.546      20.550      20.080      17.677      13.312      7.5005      1.2866     -3.9737     -6.9960    
 -3.9737     0.29658      6.1591      12.220      17.249      20.487      21.741      21.306      19.786      17.864    
  15.941      14.164      12.615      11.327      10.294      9.4917      8.8903      8.4689      8.2175      8.1336    
  8.2175      8.4689      8.8903      9.4918      10.294      11.327      12.615      14.164      15.941      17.864    
  19.786      21.306      21.741      20.487      17.249      12.220      6.1591     0.29648     -3.9737     -5.5390    
  1.2866      6.1591      11.817      16.971      20.680      22.536      22.649      21.500      19.737      17.872    
  16.095      14.504      13.147      12.034      11.146      10.459      9.9503      9.6100      9.4384      9.4384    
  9.6100      9.9503      10.459      11.146      12.034      13.147      14.504      16.095      17.872      19.737    
  21.500      22.649      22.536      20.680      16.971      11.817      6.1591      1.2866     -1.5410     -1.5410    
  7.5005      12.220      16.971      20.735      22.934      23.491      22.737      21.229      19.511      17.821    
  16.268      14.913      13.774      12.843      12.099      11.521      11.100      10.841      10.753      10.841    
  11.100      11.521      12.099      12.843      13.774      14.913      16.268      17.821      19.511      21.229    
  22.737      23.491      22.934      20.735      16.971      12.220      7.5005      4.0092      2.7201      4.0092    
  13.312      17.249      20.680      22.934      23.778      23.385      22.193      20.707      19.193      17.765    
  16.490      15.395      14.479      13.722      13.106      12.622      12.282      12.103      12.103      12.282    
  12.622      13.106      13.722      14.479      15.395      16.490      17.765      19.193      20.707      22.193    
  23.385      23.778      22.934      20.680      17.249      13.312      9.8372      7.7951      7.7952      9.8373    
  17.678      20.487      22.536      23.491      23.385      22.527      21.339      20.078      18.856      17.742    
  16.767      15.933      15.221      14.611      14.096      13.689      13.423      13.330      13.423      13.689    
  14.096      14.611      15.221      15.933      16.767      17.742      18.856      20.078      21.339      22.527    
  23.385      23.491      22.536      20.487      17.677      14.769      12.570      11.751      12.570      14.769    
  20.080      21.741      22.649      22.737      22.193      21.339      20.383      19.431      18.548      17.765    
  17.082      16.481      15.934      15.432      14.987      14.644      14.454      14.454      14.644      14.987    
  15.432      15.934      16.481      17.082      17.765      18.548      19.431      20.383      21.339      22.193    
  22.737      22.649      21.741      20.080      18.024      16.140      15.013      15.013      16.140      18.024    
  20.550      21.306      21.500      21.229      20.707      20.078      19.431      18.827      18.291      17.821    
  17.393      16.972      16.538      16.099      15.699      15.411      15.304      15.411      15.699      16.099    
  16.538      16.972      17.393      17.821      18.291      18.827      19.431      20.078      20.707      21.228    
  21.500      21.306      20.550      19.349      18.020      16.981      16.589      16.981      18.020      19.349    
  19.546      19.786      19.737      19.511      19.193      18.856      18.548      18.291      18.076      17.872    
  17.636      17.331      16.951      16.523      16.136      15.902      15.902      16.136      16.523      16.951    
  17.331      17.636      17.872      18.076      18.291      18.548      18.856      19.193      19.511      19.737    
  19.786      19.546      18.979      18.201      17.450      16.989      16.989      17.450      18.201      18.978    
  17.745      17.864      17.872      17.821      17.765      17.742      17.765      17.821      17.872      17.864    
  17.745      17.483      17.077      16.615      16.245      16.104      16.245      16.615      17.077      17.483    
  17.745      17.864      17.872      17.821      17.765      17.742      17.765      17.821      17.872      17.864    
  17.745      17.483      17.077      16.615      16.245      16.104      16.245      16.615      17.077      17.483    
  15.769      15.941      16.095      16.268      16.490      16.767      17.082      17.393      17.636      17.745    
  17.664      17.353      16.877      16.397      16.095      16.095      16.397      16.877      17.353      17.664    
  17.745      17.636      17.393      17.082      16.767      16.490      16.268      16.095      15.941      15.769    
  15.546      15.267      14.963      14.692      14.529      14.529      14.692      14.963      15.267      15.546    
  13.871      14.164      14.504      14.913      15.395      15.933      16.481      16.972      17.331      17.483    
  17.353      16.959      16.442      16.009      15.841      16.010      16.443      16.959      17.353      17.483    
  17.331      16.972      16.481      15.933      15.395      14.912      14.504      14.164      13.871      13.599    
  13.327      13.057      12.817      12.647      12.585      12.647      12.817      13.057      13.327      13.599    
  12.173      12.615      13.147      13.774      14.479      15.221      15.934      16.538      16.951      17.077    
  16.877      16.442      15.965      15.657      15.658      15.965      16.443      16.877      17.077      16.951    
  16.538      15.934      15.221      14.479      13.774      13.147      12.615      12.173      11.801      11.480    
  11.196      10.953      10.770      10.670      10.670      10.770      10.953      11.196      11.480      11.801    
  10.733      11.327      12.034      12.843      13.722      14.611      15.432      16.099      16.523      16.615    
  16.397      16.009      15.657      15.517      15.658      16.010      16.397      16.615      16.523      16.099    
  15.432      14.611      13.722      12.843      12.034      11.327      10.733      10.244      9.8419      9.5093    
  9.2376      9.0297      8.8966      8.8506      8.8966      9.0297      9.2376      9.5093      9.8420      10.244    
  9.5658      10.294      11.146      12.099      13.106      14.096      14.987      15.699      16.136      16.245    
  16.095      15.841      15.658      15.658      15.841      16.095      16.245      16.136      15.699      14.987    
  14.096      13.106      12.099      11.146      10.294      9.5658      8.9618      8.4698      8.0722      7.7547    
  7.5106      7.3420      7.2552      7.2552      7.3421      7.5107      7.7547      8.0722      8.4698      8.9618    
  8.6510      9.4917      10.459      11.521      12.622      13.689      14.644      15.411      15.902      16.104    
  16.095      16.010      15.965      16.010      16.095      16.104      15.902      15.411      14.644      13.689    
  12.622      11.521      10.459      9.4917      8.6510      7.9460      7.3694      6.9049      6.5359      6.2506    
  6.0444      5.9185      5.8760      5.9185      6.0445      6.2507      6.5359      6.9049      7.3693      7.9460    
  7.9578      8.8903      9.9503      11.100      12.282      13.423      14.454      15.304      15.902      16.245    
  16.397      16.443      16.443      16.397      16.245      15.902      15.304      14.454      13.423      12.282    
  11.100      9.9503      8.8903      7.9578      7.1676      6.5167      5.9907      5.5721      5.2459      5.0032    
  4.8407      4.7588      4.7588      4.8407      5.0032      5.2459      5.5720      5.9907      6.5167      7.1676    
  7.4574      8.4689      9.6100      10.841      12.103      13.330      14.454      15.411      16.136      16.615    
  16.877      16.959      16.877      16.615      16.136      15.411      14.454      13.330      12.103      10.841    
  9.6100      8.4690      7.4574      6.5937      5.8776      5.2963      4.8321      4.4681      4.1917      3.9962    
  3.8790      3.8399      3.8790      3.9962      4.1917      4.4680      4.8321      5.2964      5.8776      6.5937    
  7.1307      8.2175      9.4384      10.753      12.103      13.423      14.644      15.699      16.523      17.077    
  17.353      17.353      17.077      16.523      15.699      14.644      13.423      12.103      10.753      9.4383    
  8.2175      7.1307      6.1981      5.4211      4.7881      4.2809      3.8811      3.5737      3.3487      3.2006    
  3.1270      3.1269      3.2006      3.3487      3.5737      3.8811      4.2809      4.7881      5.4211      6.1981    
  6.9686      8.1336      9.4384      10.841      12.282      13.689      14.987      16.099      16.951      17.483    
  17.664      17.483      16.951      16.099      14.987      13.689      12.282      10.841      9.4383      8.1336    
  6.9686      5.9651      5.1259      4.4400      3.8889      3.4530      3.1151      2.8626      2.6869      2.5832    
  2.5488      2.5832      2.6869      2.8626      3.1152      3.4530      3.8889      4.4400      5.1259      5.9651    
  6.9686      8.2175      9.6100      11.100      12.622      14.096      15.432      16.538      17.331      17.745    
  17.745      17.331      16.538      15.432      14.096      12.622      11.100      9.6100      8.2175      6.9686    
  5.8880      4.9805      4.2361      3.6364      3.1606      2.7899      2.5092      2.3073      2.1768      2.1126    
  2.1126      2.1768      2.3074      2.5092      2.7899      3.1606      3.6364      4.2361      4.9804      5.8879    
  7.1306      8.4689      9.9503      11.521      13.106      14.611      15.934      16.972      17.636      17.864    