unknown system                          
   1.00000000000000     
     0.000000    2.925700    2.925700
     2.925700    0.000000    2.925700
     2.925700    2.925700    0.000000
   Si
     2
Direct
  0.000000  0.000000  0.000000
  0.250000  0.250000  0.250000
 
   40   40   40
 -.85260816130E+01 -.69959966911E+01 -.27957822651E+01 0.30413267247E+01 0.91852418311E+01
 0.14411073948E+02 0.17905288257E+02 0.19397665905E+02 0.19123258346E+02 0.17663862371E+02
 0.15722869265E+02 0.13760638451E+02 0.11945023008E+02 0.10370076425E+02 0.90714633757E+01
 0.80423787856E+01 0.72539554890E+01 0.66728502318E+01 0.62724335694E+01 0.60367391210E+01
 0.59587506316E+01 0.60367268093E+01 0.62724226754E+01 0.66728536601E+01 0.72539719491E+01
 0.80423934969E+01 0.90714612083E+01 0.10370056701E+02 0.11945003559E+02 0.13760642194E+02
 0.15722900273E+02 0.17663893222E+02 0.19123245401E+02 0.19397582783E+02 0.17905149204E+02
 0.14410928073E+02 0.91851435584E+01 0.30413022343E+01 -.27957516186E+01 -.69959604392E+01
 -.69959966911E+01 -.39736510301E+01 0.12865731893E+01 0.75004667050E+01 0.13312033903E+02
 0.17677518253E+02 0.20079758596E+02 0.20550192924E+02 0.19545744149E+02 0.17745479350E+02
 0.15768897214E+02 0.13871433597E+02 0.12172642729E+02 0.10733403799E+02 0.95658009831E+01
 0.86509652716E+01 0.79577884937E+01 0.74574015780E+01 0.71306712969E+01 0.69686146428E+01
 0.69685793385E+01 0.71306195095E+01 0.74574087893E+01 0.79578340274E+01 0.86509726817E+01
 0.95657616722E+01 0.10733378685E+02 0.12172653345E+02 0.13871435679E+02 0.15768873593E+02
 0.17745474565E+02 0.19545770722E+02 0.20550179319E+02 0.20079653040E+02 0.17677389671E+02
 0.13311988178E+02 0.75004948508E+01 0.12865700531E+01 -.39737190403E+01 -.69960408296E+01
 -.27957822651E+01 0.12865731893E+01 0.68861646669E+01 0.12663279949E+02 0.17434764795E+02
 0.20470145186E+02 0.21588014700E+02 0.21082006108E+02 0.19544116623E+02 0.17635736763E+02
 0.15732830057E+02 0.13976508249E+02 0.12447898626E+02 0.11177704852E+02 0.10159841246E+02
 0.93688059064E+01 0.87759446467E+01 0.83604002708E+01 0.81123400011E+01 0.80296075491E+01
 0.81123247646E+01 0.83603837711E+01 0.87759400553E+01 0.93688126543E+01 0.10159846554E+02
 0.11177695694E+02 0.12447873438E+02 0.13976480228E+02 0.15732818077E+02 0.17635748166E+02
 0.19544136427E+02 0.21082006125E+02 0.21587977755E+02 0.20470082537E+02 0.17434711316E+02
 0.12663270300E+02 0.68862089535E+01 0.12866460750E+01 -.27957274962E+01 -.42927129612E+01
 0.30413267247E+01 0.75004667050E+01 0.12663279949E+02 0.17335151882E+02 0.20644283414E+02
 0.22217110893E+02 0.22168148415E+02 0.20962422960E+02 0.19217186410E+02 0.17392699343E+02
 0.15658205027E+02 0.14108777428E+02 0.12790422860E+02 0.11709945496E+02 0.10849629242E+02
 0.10183340407E+02 0.96899495067E+01 0.93598919260E+01 0.91933605519E+01 0.91933673585E+01
 0.93598952646E+01 0.96899314101E+01 0.10183321093E+02 0.10849638096E+02 0.11709967593E+02
 0.12790415740E+02 0.14108737243E+02 0.15658175659E+02 0.17392707096E+02 0.19217205718E+02
 0.20962424366E+02 0.22168142103E+02 0.22217113221E+02 0.20644275472E+02 0.17335118977E+02
 0.12663267920E+02 0.75005369896E+01 0.30414511443E+01 0.45059874431E+00 0.45053502442E+00
 0.91852418311E+01 0.13312033903E+02 0.17434764795E+02 0.20644283414E+02 0.22427940141E+02
 0.22730755178E+02 0.21870548707E+02 0.20371370634E+02 0.18710110337E+02 0.17082320574E+02
 0.15591114028E+02 0.14293246444E+02 0.13206193739E+02 0.12320042391E+02 0.11612334639E+02
 0.11062752113E+02 0.10662794905E+02 0.10416493512E+02 0.10332905638E+02 0.10416489187E+02
 0.10662789432E+02 0.11062748642E+02 0.11612335030E+02 0.12320047405E+02 0.13206201489E+02
 0.14293250475E+02 0.15591107017E+02 0.17082301843E+02 0.18710088105E+02 0.20371356311E+02
 0.21870550480E+02 0.22730773372E+02 0.22427965309E+02 0.20644298420E+02 0.17434755436E+02
 0.13312000762E+02 0.91852008772E+01 0.61221416890E+01 0.49897484179E+01 0.61221690811E+01
 0.14411073948E+02 0.17677518253E+02 0.20470145186E+02 0.22217110893E+02 0.22730755178E+02
 0.22183233569E+02 0.20981683849E+02 0.19559484329E+02 0.18119369946E+02 0.16766927035E+02
 0.15564779112E+02 0.14537582029E+02 0.13681462462E+02 0.12977100860E+02 0.12404787536E+02
 0.11956882631E+02 0.11641815255E+02 0.11477303507E+02 0.11477301712E+02 0.11641812980E+02
 0.11956882859E+02 0.12404787565E+02 0.12977100291E+02 0.13681470233E+02 0.14537603840E+02
 0.15564801036E+02 0.16766924444E+02 0.18119335541E+02 0.19559438699E+02 0.20981654641E+02
 0.22183232413E+02 0.22730773732E+02 0.22217129518E+02 0.20470137010E+02 0.17677459392E+02
 0.14410967915E+02 0.11504055591E+02 0.97895270818E+01 0.97895730985E+01 0.11504163489E+02
 0.17905288257E+02 0.20079758596E+02 0.21588014700E+02 0.22168148415E+02 0.21870548707E+02
 0.20981683849E+02 0.19853135672E+02 0.18666478299E+02 0.17524102507E+02 0.16489714411E+02
 0.15591113291E+02 0.14827530597E+02 0.14180865998E+02 0.13630423955E+02 0.13167644300E+02
 0.12804034326E+02 0.12566832172E+02 0.12483870246E+02 0.12566834267E+02 0.12804035533E+02
 0.13167642513E+02 0.13630422450E+02 0.14180872340E+02 0.14827549373E+02 0.15591138638E+02
 0.16489730813E+02 0.17524095084E+02 0.18666444046E+02 0.19853087813E+02 0.20981642897E+02
 0.21870528907E+02 0.22168144916E+02 0.21588005737E+02 0.20079721540E+02 0.17905218871E+02
 0.15607818158E+02 0.13855447340E+02 0.13199989268E+02 0.13855500494E+02 0.15607897412E+02
 0.19397665905E+02 0.20550192924E+02 0.21082006108E+02 0.20962422960E+02 0.20371370634E+02
 0.19559484329E+02 0.18666478299E+02 0.17785644898E+02 0.16977241431E+02 0.16268388997E+02
 0.15658204381E+02 0.15127136823E+02 0.14650901004E+02 0.14216845568E+02 0.13836052259E+02
 0.13543206933E+02 0.13381799186E+02 0.13381798685E+02 0.13543207752E+02 0.13836056710E+02
 0.14216851056E+02 0.14650904933E+02 0.15127143823E+02 0.15658220723E+02 0.16268412091E+02
 0.16977259246E+02 0.17785645843E+02 0.18666457423E+02 0.19559444867E+02 0.20371324071E+02
 0.20962390657E+02 0.21082004960E+02 0.20550212913E+02 0.19397671633E+02 0.17895716659E+02
 0.16488855080E+02 0.15638654978E+02 0.15638682811E+02 0.16488911384E+02 0.17895751522E+02
 0.19123258346E+02 0.19545744149E+02 0.19544116623E+02 0.19217186410E+02 0.18710110337E+02
 0.18119369946E+02 0.17524102507E+02 0.16977241431E+02 0.16502125460E+02 0.16095116556E+02
 0.15732829664E+02 0.15384729955E+02 0.15030284257E+02 0.14674928234E+02 0.14355505204E+02
 0.14128621720E+02 0.14045845885E+02 0.14128629291E+02 0.14355516761E+02 0.14674939428E+02
 0.15030292833E+02 0.15384736952E+02 0.15732839798E+02 0.16095133900E+02 0.16502149614E+02
 0.16977266879E+02 0.17524120870E+02 0.18119373885E+02 0.18710099557E+02 0.19217168119E+02
 0.19544102381E+02 0.19545745358E+02 0.19123278100E+02 0.18342858057E+02 0.17433080786E+02
 0.16705755255E+02 0.16428276010E+02 0.16705732643E+02 0.17433045528E+02 0.18342824447E+02
 0.17663862371E+02 0.17745479350E+02 0.17635736763E+02 0.17392699343E+02 0.17082320574E+02
 0.16766927035E+02 0.16489714411E+02 0.16268388997E+02 0.16095116556E+02 0.15941418729E+02
 0.15768896534E+02 0.15546078117E+02 0.15267208798E+02 0.14962704838E+02 0.14691621718E+02
 0.14529216582E+02 0.14529226234E+02 0.14691644704E+02 0.14962729300E+02 0.15267227347E+02
 0.15546090707E+02 0.15768905902E+02 0.15941429718E+02 0.16095134157E+02 0.16268414868E+02
 0.16489746628E+02 0.16766962338E+02 0.17082354652E+02 0.17392721858E+02 0.17635733012E+02
 0.17745447321E+02 0.17663835197E+02 0.17352755943E+02 0.16877156657E+02 0.16396646828E+02
 0.16095428978E+02 0.16095374140E+02 0.16396525080E+02 0.16877055271E+02 0.17352726946E+02
 0.15722869265E+02 0.15768897214E+02 0.15732830057E+02 0.15658205027E+02 0.15591114028E+02
 0.15564779112E+02 0.15591113291E+02 0.15658204381E+02 0.15732829664E+02 0.15768896534E+02
 0.15722868486E+02 0.15573738249E+02 0.15334875386E+02 0.15056185970E+02 0.14828938321E+02
 0.14741183811E+02 0.14828963279E+02 0.15056225151E+02 0.15334913571E+02 0.15573764176E+02
 0.15722879429E+02 0.15768897840E+02 0.15732832841E+02 0.15658219014E+02 0.15591139473E+02
 0.15564809616E+02 0.15591139133E+02 0.15658219080E+02 0.15732833319E+02 0.15768897988E+02
 0.15722879239E+02 0.15573764357E+02 0.15334914060E+02 0.15056225122E+02 0.14828962666E+02
 0.14741183352E+02 0.14828938102E+02 0.15056185415E+02 0.15334874685E+02 0.15573738278E+02
 0.13760638451E+02 0.13871433597E+02 0.13976508249E+02 0.14108777428E+02 0.14293246444E+02
 0.14537582029E+02 0.14827530597E+02 0.15127136823E+02 0.15384729955E+02 0.15546078117E+02
 0.15573738249E+02 0.15459743312E+02 0.15232052069E+02 0.14980022573E+02 0.14815873689E+02
 0.14815892557E+02 0.14980069385E+02 0.15232105273E+02 0.15459784393E+02 0.15573758671E+02
 0.15546079171E+02 0.15384721400E+02 0.15127135360E+02 0.14827543769E+02 0.14537597018E+02
 0.14293242831E+02 0.14108752743E+02 0.13976488657E+02 0.13871448569E+02 0.13760687337E+02
 0.13616977501E+02 0.13433002357E+02 0.13229271958E+02 0.13049542685E+02 0.12943359708E+02
 0.12943392882E+02 0.13049615941E+02 0.13229328782E+02 0.13433003538E+02 0.13616931910E+02
 0.11945023008E+02 0.12172642729E+02 0.12447898626E+02 0.12790422860E+02 0.13206193739E+02
 0.13681462462E+02 0.14180865998E+02 0.14650901004E+02 0.15030284257E+02 0.15267208798E+02
 0.15334875386E+02 0.15232052069E+02 0.15024353266E+02 0.14827237490E+02 0.14747247578E+02
 0.14827278554E+02 0.15024414270E+02 0.15232105900E+02 0.15334905498E+02 0.15267216017E+02
 0.15030280543E+02 0.14650898508E+02 0.14180869683E+02 0.13681465102E+02 0.13206185358E+02
 0.12790402056E+02 0.12447873819E+02 0.12172624198E+02 0.11945012667E+02 0.11741193758E+02
 0.11544176921E+02 0.11352744446E+02 0.11183649470E+02 0.11064763428E+02 0.11021701098E+02
 0.11064788550E+02 0.11183685756E+02 0.11352775582E+02 0.11544195389E+02 0.11741203225E+02
 0.10370076425E+02 0.10733403799E+02 0.11177704852E+02 0.11709945496E+02 0.12320042391E+02
 0.12977100860E+02 0.13630423955E+02 0.14216845568E+02 0.14674928234E+02 0.14962704838E+02
 0.15056185970E+02 0.14980022573E+02 0.14827237490E+02 0.14712317214E+02 0.14712338757E+02
 0.14827290753E+02 0.14980081057E+02 0.15056226000E+02 0.14962720686E+02 0.14674932448E+02
 0.14216851016E+02 0.13630432674E+02 0.12977107715E+02 0.12320045285E+02 0.11709946611E+02
 0.11177698103E+02 0.10733374617E+02 0.10370022152E+02 0.10070710302E+02 0.98173030946E+01
 0.95986993821E+01 0.94155954561E+01 0.92794639353E+01 0.92059381670E+01 0.92059387859E+01
 0.92794601689E+01 0.94155848289E+01 0.95986985477E+01 0.98173328692E+01 0.10070766681E+02
 0.90714633757E+01 0.95658009831E+01 0.10159841246E+02 0.10849629242E+02 0.11612334639E+02
 0.12404787536E+02 0.13167644300E+02 0.13836052259E+02 0.14355505204E+02 0.14691621718E+02
 0.14828938321E+02 0.14815873689E+02 0.14747247578E+02 0.14712338757E+02 0.14747281747E+02
 0.14815923196E+02 0.14828980985E+02 0.14691646250E+02 0.14355515718E+02 0.13836060781E+02
 0.13167659475E+02 0.12404808968E+02 0.11612350697E+02 0.10849629448E+02 0.10159827524E+02
 0.95657875948E+01 0.90714630155E+01 0.86672625052E+01 0.83374320098E+01 0.80675421685E+01
 0.78499947819E+01 0.76857714673E+01 0.75819186333E+01 0.75462105114E+01 0.75819444479E+01
 0.76858056749E+01 0.78500169888E+01 0.80675436967E+01 0.83374192926E+01 0.86672501457E+01
 0.80423787856E+01 0.86509652716E+01 0.93688059064E+01 0.10183340407E+02 0.11062752113E+02
 0.11956882631E+02 0.12804034326E+02 0.13543206933E+02 0.14128621720E+02 0.14529216582E+02
 0.14741183811E+02 0.14815892557E+02 0.14827278554E+02 0.14827290753E+02 0.14815923196E+02
 0.14741219074E+02 0.14529243320E+02 0.14128635569E+02 0.13543215775E+02 0.12804050248E+02
 0.11956909374E+02 0.11062774456E+02 0.10183338276E+02 0.93687841512E+01 0.86509586375E+01
 0.80424188151E+01 0.75400854863E+01 0.71315372357E+01 0.68019344136E+01 0.65397258559E+01
 0.63396734756E+01 0.62025859512E+01 0.61324077505E+01 0.61324170364E+01 0.62026159083E+01
 0.63397187187E+01 0.65397589764E+01 0.68019211444E+01 0.71314731386E+01 0.75400095527E+01
 0.72539554890E+01 0.79577884937E+01 0.87759446467E+01 0.96899495067E+01 0.10662794905E+02
 0.11641815255E+02 0.12566832172E+02 0.13381799186E+02 0.14045845885E+02 0.14529226234E+02
 0.14828963279E+02 0.14980069385E+02 0.15024414270E+02 0.14980081057E+02 0.14828980985E+02
 0.14529243320E+02 0.14045859550E+02 0.13381811241E+02 0.12566844911E+02 0.11641830543E+02
 0.10662811729E+02 0.96899633012E+01 0.87759517331E+01 0.79577904418E+01 0.72539589260E+01
 0.66664353575E+01 0.61859304397E+01 0.57982494698E+01 0.54899615297E+01 0.52520448077E+01
 0.50808804255E+01 0.49768848742E+01 0.49419090421E+01 0.49768796851E+01 0.50808674758E+01
 0.52520229598E+01 0.54899337993E+01 0.57982220126E+01 0.61859095030E+01 0.66664240923E+01
 0.66728502318E+01 0.74574015780E+01 0.83604002708E+01 0.93598919260E+01 0.10416493512E+02
 0.11477303507E+02 0.12483870246E+02 0.13381798685E+02 0.14128629291E+02 0.14691644704E+02
 0.15056225151E+02 0.15232105273E+02 0.15232105900E+02 0.15056226000E+02 0.14691646250E+02
 0.14128635569E+02 0.13381811241E+02 0.12483881429E+02 0.11477306212E+02 0.10416493899E+02
 0.93599039954E+01 0.83604242323E+01 0.74574128536E+01 0.66728230802E+01 0.60120017325E+01
 0.54680013162E+01 0.50274111522E+01 0.46758382419E+01 0.44017698584E+01 0.41982535265E+01
 0.40625385506E+01 0.39944330768E+01 0.39944286992E+01 0.40625175799E+01 0.41982054268E+01
 0.44017048208E+01 0.46757911865E+01 0.50274145783E+01 0.54680523751E+01 0.60120611138E+01
 0.62724335694E+01 0.71306712969E+01 0.81123400011E+01 0.91933605519E+01 0.10332905638E+02
 0.11477301712E+02 0.12566834267E+02 0.13543207752E+02 0.14355516761E+02 0.14962729300E+02
 0.15334913571E+02 0.15459784393E+02 0.15334905498E+02 0.14962720686E+02 0.14355515718E+02
 0.13543215775E+02 0.12566844911E+02 0.11477306212E+02 0.10332898798E+02 0.91933442182E+01
 0.81123216144E+01 0.71306572195E+01 0.62724230712E+01 0.55450860401E+01 0.49431779193E+01
 0.44537565109E+01 0.40617435609E+01 0.37538265339E+01 0.35204306476E+01 0.33559405919E+01
 0.32577784299E+01 0.32251002393E+01 0.32577586657E+01 0.33559141216E+01 0.35204142653E+01
 0.37538297990E+01 0.40617639688E+01 0.44537830876E+01 0.49431998118E+01 0.55450997536E+01
 0.60367391210E+01 0.69686146428E+01 0.80296075491E+01 0.91933673585E+01 0.10416489187E+02
 0.11641812980E+02 0.12804035533E+02 0.13836056710E+02 0.14674939428E+02 0.15267227347E+02
 0.15573764176E+02 0.15573758671E+02 0.15267216017E+02 0.14674932448E+02 0.13836060781E+02
 0.12804050248E+02 0.11641830543E+02 0.10416493899E+02 0.91933442182E+01 0.80295607530E+01
 0.69685748511E+01 0.60367404557E+01 0.52434051041E+01 0.45842525752E+01 0.40465649655E+01
 0.36145695289E+01 0.32734472918E+01 0.30114622225E+01 0.28204594821E+01 0.26953769555E+01
 0.26334295659E+01 0.26334170058E+01 0.26953530183E+01 0.28204555237E+01 0.30115012424E+01
 0.32735179748E+01 0.36146279425E+01 0.40465716324E+01 0.45842118496E+01 0.52433629354E+01
 0.59587506316E+01 0.69685793385E+01 0.81123247646E+01 0.93598952646E+01 0.10662789432E+02
 0.11956882859E+02 0.13167642513E+02 0.14216851056E+02 0.15030292833E+02 0.15546090707E+02
 0.15722879429E+02 0.15546079171E+02 0.15030280543E+02 0.14216851016E+02 0.13167659475E+02
 0.11956909374E+02 0.10662811729E+02 0.93599039954E+01 0.81123216144E+01 0.69685748511E+01
 0.59587544109E+01 0.50948784999E+01 0.43742365556E+01 0.37846003751E+01 0.33096589463E+01
 0.29332496763E+01 0.26417254810E+01 0.24246563731E+01 0.22745721626E+01 0.21864594655E+01
 0.21574068050E+01 0.21864573020E+01 0.22745750157E+01 0.24246716361E+01 0.26417528408E+01
 0.29332792569E+01 0.33096776505E+01 0.37846015595E+01 0.43742250387E+01 0.50948660948E+01
 0.60367268093E+01 0.71306195095E+01 0.83603837711E+01 0.96899314101E+01 0.11062748642E+02
 0.12404787565E+02 0.13630422450E+02 0.14650904933E+02 0.15384736952E+02 0.15768905902E+02
 0.15768897840E+02 0.15384721400E+02 0.14650898508E+02 0.13630432674E+02 0.12404808968E+02
 0.11062774456E+02 0.96899633012E+01 0.83604242323E+01 0.71306572195E+01 0.60367404557E+01
 0.50948784999E+01 0.43049763190E+01 0.36560264336E+01 0.31317146717E+01 0.27148911391E+01
 0.23902355678E+01 0.21452325736E+01 0.19701201508E+01 0.18575746272E+01 0.18025909021E+01
 0.18025958537E+01 0.18575894872E+01 0.19701392105E+01 0.21452395659E+01 0.23902169316E+01
 0.27148556666E+01 0.31316913391E+01 0.36560355748E+01 0.43050062467E+01 0.50948968730E+01
 0.62724226754E+01 0.74574087893E+01 0.87759400553E+01 0.10183321093E+02 0.11612335030E+02
 0.12977100291E+02 0.14180872340E+02 0.15127143823E+02 0.15732839798E+02 0.15941429718E+02
 0.15732832841E+02 0.15127135360E+02 0.14180869683E+02 0.12977107715E+02 0.11612350697E+02
 0.10183338276E+02 0.87759517331E+01 0.74574128536E+01 0.62724230712E+01 0.52434051041E+01
 0.43742365556E+01 0.36560264336E+01 0.30731292609E+01 0.26079497705E+01 0.22438923070E+01
 0.19666068827E+01 0.17641767976E+01 0.16269871401E+01 0.15477658500E+01 0.15218933784E+01
 0.15477737801E+01 0.16269981721E+01 0.17641831528E+01 0.19666014894E+01 0.22438727311E+01
 0.26079199404E+01 0.30730975290E+01 0.36560012753E+01 0.43742226734E+01 0.52434010565E+01
 0.66728536601E+01 0.79578340274E+01 0.93688126543E+01 0.10849638096E+02 0.12320047405E+02
 0.13681470233E+02 0.14827549373E+02 0.15658220723E+02 0.16095133900E+02 0.16095134157E+02
 0.15658219014E+02 0.14827543769E+02 0.13681465102E+02 0.12320045285E+02 0.10849629448E+02
 0.93687841512E+01 0.79577904418E+01 0.66728230802E+01 0.55450860401E+01 0.45842525752E+01
 0.37846003751E+01 0.31317146717E+01 0.26079497705E+01 0.21958126348E+01 0.18794556524E+01
 0.16450393603E+01 0.14807616070E+01 0.13770475052E+01 0.13270113021E+01 0.13270156451E+01
 0.13770539634E+01 0.14807587483E+01 0.16450261921E+01 0.18794439353E+01 0.21958111628E+01
 0.26079489662E+01 0.31316947333E+01 0.37845576128E+01 0.45842114806E+01 0.55450781000E+01
 0.72539719491E+01 0.86509726817E+01 0.10159846554E+02 0.11709967593E+02 0.13206201489E+02
 0.14537603840E+02 0.15591138638E+02 0.16268412091E+02 0.16502149614E+02 0.16268414868E+02
 0.15591139473E+02 0.14537597018E+02 0.13206185358E+02 0.11709946611E+02 0.10159827524E+02
 0.86509586375E+01 0.72539589260E+01 0.60120017325E+01 0.49431779193E+01 0.40465649655E+01
 0.33096589463E+01 0.27148911391E+01 0.22438923070E+01 0.18794556524E+01 0.16060493427E+01
 0.14098877557E+01 0.12791855610E+01 0.12047304725E+01 0.11805983034E+01 0.12047364330E+01
 0.12791897291E+01 0.14098813003E+01 0.16060304088E+01 0.18794323229E+01 0.22438777151E+01
 0.27148946194E+01 0.33096800559E+01 0.40465945258E+01 0.49432050334E+01 0.60120205895E+01
 0.80423934969E+01 0.95657616722E+01 0.11177695694E+02 0.12790415740E+02 0.14293250475E+02
 0.15564801036E+02 0.16489730813E+02 0.16977259246E+02 0.16977266879E+02 0.16489746628E+02
 0.15564809616E+02 0.14293242831E+02 0.12790402056E+02 0.11177698103E+02 0.95657875948E+01
 0.80424188151E+01 0.66664353575E+01 0.54680013162E+01 0.44537565109E+01 0.36145695289E+01
 0.29332496763E+01 0.23902355678E+01 0.19666068827E+01 0.16450393603E+01 0.14098877557E+01
 0.12473355809E+01 0.11459392729E+01 0.10974229495E+01 0.10974251711E+01 0.11459438309E+01
 0.12473385355E+01 0.14098856926E+01 0.16450291489E+01 0.19665886734E+01 0.23902215232E+01
 0.29332633999E+01 0.36146252964E+01 0.44538363729E+01 0.54680622322E+01 0.66664476434E+01
 0.90714612083E+01 0.10733378685E+02 0.12447873438E+02 0.14108737243E+02 0.15591107017E+02
 0.16766924444E+02 0.17524095084E+02 0.17785645843E+02 0.17524120870E+02 0.16766962338E+02
 0.15591139133E+02 0.14108752743E+02 0.12447873819E+02 0.10733374617E+02 0.90714630155E+01
 0.75400854863E+01 0.61859304397E+01 0.50274111522E+01 0.40617435609E+01 0.32734472918E+01
 0.26417254810E+01 0.21452325736E+01 0.17641767976E+01 0.14807616070E+01 0.12791855610E+01
 0.11459392729E+01 0.10704958179E+01 0.10461220803E+01 0.10704970053E+01 0.11459401186E+01
 0.12791858278E+01 0.14807644263E+01 0.17641870537E+01 0.21452527785E+01 0.26417523736E+01
 0.32734722102E+01 0.40617571635E+01 0.50274098028E+01 0.61859196863E+01 0.75400756406E+01
 0.10370056701E+02 0.12172653345E+02 0.13976480228E+02 0.15658175659E+02 0.17082301843E+02
 0.18119335541E+02 0.18666444046E+02 0.18666457423E+02 0.18119373885E+02 0.17082354652E+02
 0.15658219080E+02 0.13976488657E+02 0.12172624198E+02 0.10370022152E+02 0.86672625052E+01
 0.71315372357E+01 0.57982494698E+01 0.46758382419E+01 0.37538265339E+01 0.30114622225E+01
 0.24246563731E+01 0.19701201508E+01 0.16269871401E+01 0.13770475052E+01 0.12047304725E+01
 0.10974229495E+01 0.10461220803E+01 0.10461194262E+01 0.10974179958E+01 0.12047279790E+01
 0.13770493870E+01 0.16269958171E+01 0.19701423699E+01 0.24246936857E+01 0.30114966262E+01
 0.37538256567E+01 0.46757858169E+01 0.57981696772E+01 0.71314795264E+01 0.86672583008E+01
 0.11945003559E+02 0.13871435679E+02 0.15732818077E+02 0.17392707096E+02 0.18710088105E+02
 0.19559438699E+02 0.19853087813E+02 0.19559444867E+02 0.18710099557E+02 0.17392721858E+02
 0.15732833319E+02 0.13871448569E+02 0.11945012667E+02 0.10070710302E+02 0.83374320098E+01
 0.68019344136E+01 0.54899615297E+01 0.44017698584E+01 0.35204306476E+01 0.28204594821E+01
 0.22745721626E+01 0.18575746272E+01 0.15477658500E+01 0.13270113021E+01 0.11805983034E+01
 0.10974251711E+01 0.10704970053E+01 0.10974179958E+01 0.11805898498E+01 0.13270086077E+01
 0.15477714118E+01 0.18575841889E+01 0.22745772183E+01 0.28204527349E+01 0.35204106613E+01
 0.44017420483E+01 0.54899346997E+01 0.68019149858E+01 0.83374208857E+01 0.10070702845E+02
 0.13760642194E+02 0.15768873593E+02 0.17635748166E+02 0.19217205718E+02 0.20371356311E+02
 0.20981654641E+02 0.20981642897E+02 0.20371324071E+02 0.19217168119E+02 0.17635733012E+02
 0.15768897988E+02 0.13760687337E+02 0.11741193758E+02 0.98173030946E+01 0.80675421685E+01
 0.65397258559E+01 0.52520448077E+01 0.41982535265E+01 0.33559405919E+01 0.26953769555E+01
 0.21864594655E+01 0.18025909021E+01 0.15218933784E+01 0.13270156451E+01 0.12047364330E+01
 0.11459438309E+01 0.11459401186E+01 0.12047279790E+01 0.13270086077E+01 0.15218925556E+01
 0.18025949037E+01 0.21864577499E+01 0.26953550964E+01 0.33558956817E+01 0.41982076089E+01
 0.52520336973E+01 0.65397644335E+01 0.80676018552E+01 0.98173335232E+01 0.11741172869E+02
 0.15722900273E+02 0.17745474565E+02 0.19544136427E+02 0.20962424366E+02 0.21870550480E+02
 0.22183232413E+02 0.21870528907E+02 0.20962390657E+02 0.19544102381E+02 0.17745447321E+02
 0.15722879239E+02 0.13616977501E+02 0.11544176921E+02 0.95986993821E+01 0.78499947819E+01
 0.63396734756E+01 0.50808804255E+01 0.40625385506E+01 0.32577784299E+01 0.26334295659E+01
 0.21574068050E+01 0.18025958537E+01 0.15477737801E+01 0.13770539634E+01 0.12791897291E+01
 0.12473385355E+01 0.12791858278E+01 0.13770493870E+01 0.15477714118E+01 0.18025949037E+01
 0.21574030669E+01 0.26334192221E+01 0.32577622924E+01 0.40625234165E+01 0.50808755314E+01
 0.63396841576E+01 0.78500185220E+01 0.95987276387E+01 0.11544202666E+02 0.13616998719E+02
 0.17663893222E+02 0.19545770722E+02 0.21082006125E+02 0.22168142103E+02 0.22730773372E+02
 0.22730773732E+02 0.22168144916E+02 0.21082004960E+02 0.19545745358E+02 0.17663835197E+02
 0.15573764357E+02 0.13433002357E+02 0.11352744446E+02 0.94155954561E+01 0.76857714673E+01
 0.62025859512E+01 0.49768848742E+01 0.39944330768E+01 0.32251002393E+01 0.26334170058E+01
 0.21864573020E+01 0.18575894872E+01 0.16269981721E+01 0.14807587483E+01 0.14098813003E+01
 0.14098856926E+01 0.14807644263E+01 0.16269958171E+01 0.18575841889E+01 0.21864577499E+01
 0.26334192221E+01 0.32250977082E+01 0.39944370262E+01 0.49769115391E+01 0.62026242449E+01
 0.76857862298E+01 0.94155745429E+01 0.11352723261E+02 0.13433022964E+02 0.15573824972E+02
 0.19123245401E+02 0.20550179319E+02 0.21587977755E+02 0.22217113221E+02 0.22427965309E+02
 0.22217129518E+02 0.21588005737E+02 0.20550212913E+02 0.19123278100E+02 0.17352755943E+02
 0.15334914060E+02 0.13229271958E+02 0.11183649470E+02 0.92794639353E+01 0.75819186333E+01
 0.61324077505E+01 0.49419090421E+01 0.39944286992E+01 0.32577586657E+01 0.26953530183E+01
 0.22745750157E+01 0.19701392105E+01 0.17641831528E+01 0.16450261921E+01 0.16060304088E+01
 0.16450291489E+01 0.17641870537E+01 0.19701423699E+01 0.22745772183E+01 0.26953550964E+01
 0.32577622924E+01 0.39944370262E+01 0.49419247078E+01 0.61324305183E+01 0.75819444577E+01
 0.92794876851E+01 0.11183665661E+02 0.13229275681E+02 0.15334902903E+02 0.17352730732E+02
 0.19397582783E+02 0.20079653040E+02 0.20470082537E+02 0.20644275472E+02 0.20644298420E+02
 0.20470137010E+02 0.20079721540E+02 0.19397671633E+02 0.18342858057E+02 0.16877156657E+02
 0.15056225122E+02 0.13049542685E+02 0.11064763428E+02 0.92059381670E+01 0.75462105114E+01
 0.61324170364E+01 0.49768796851E+01 0.40625175799E+01 0.33559141216E+01 0.28204555237E+01
 0.24246716361E+01 0.21452395659E+01 0.19666014894E+01 0.18794439353E+01 0.18794323229E+01
 0.19665886734E+01 0.21452527785E+01 0.24246936857E+01 0.28204527349E+01 0.33558956817E+01
 0.40625234165E+01 0.49769115391E+01 0.61324305183E+01 0.75461879676E+01 0.92059260539E+01
 0.11064803612E+02 0.13049600716E+02 0.15056226003E+02 0.16877079446E+02 0.18342751851E+02
 0.17905149204E+02 0.17677389671E+02 0.17434711316E+02 0.17335118977E+02 0.17434755436E+02
 0.17677459392E+02 0.17905218871E+02 0.17895716659E+02 0.17433080786E+02 0.16396646828E+02
 0.14828962666E+02 0.12943359708E+02 0.11021701098E+02 0.92059387859E+01 0.75819444479E+01
 0.62026159083E+01 0.50808674758E+01 0.41982054268E+01 0.35204142653E+01 0.30115012424E+01
 0.26417528408E+01 0.23902169316E+01 0.22438727311E+01 0.21958111628E+01 0.22438777151E+01
 0.23902215232E+01 0.26417523736E+01 0.30114966262E+01 0.35204106613E+01 0.41982076089E+01
 0.50808755314E+01 0.62026242449E+01 0.75819444577E+01 0.92059260539E+01 0.11021679502E+02
 0.12943338512E+02 0.14828946141E+02 0.16396629595E+02 0.17433050748E+02 0.17895664901E+02
 0.14410928073E+02 0.13311988178E+02 0.12663270300E+02 0.12663267920E+02 0.13312000762E+02
 0.14410967915E+02 0.15607818158E+02 0.16488855080E+02 0.16705755255E+02 0.16095428978E+02
 0.14741183352E+02 0.12943392882E+02 0.11064788550E+02 0.92794601689E+01 0.76858056749E+01
 0.63397187187E+01 0.52520229598E+01 0.44017048208E+01 0.37538297990E+01 0.32735179748E+01
 0.29332792569E+01 0.27148556666E+01 0.26079199404E+01 0.26079489662E+01 0.27148946194E+01
 0.29332633999E+01 0.32734722102E+01 0.37538256567E+01 0.44017420483E+01 0.52520336973E+01
 0.63396841576E+01 0.76857862298E+01 0.92794876851E+01 0.11064803612E+02 0.12943338512E+02
 0.14741104256E+02 0.16095412706E+02 0.16705804150E+02 0.16488889425E+02 0.15607795174E+02
 0.91851435584E+01 0.75004948508E+01 0.68862089535E+01 0.75005369896E+01 0.91852008772E+01
 0.11504055591E+02 0.13855447340E+02 0.15638654978E+02 0.16428276010E+02 0.16095374140E+02
 0.14828938102E+02 0.13049615941E+02 0.11183685756E+02 0.94155848289E+01 0.78500169888E+01
 0.65397589764E+01 0.54899337993E+01 0.46757911865E+01 0.40617639688E+01 0.36146279425E+01
 0.33096776505E+01 0.31316913391E+01 0.30730975290E+01 0.31316947333E+01 0.33096800559E+01
 0.36146252964E+01 0.40617571635E+01 0.46757858169E+01 0.54899346997E+01 0.65397644335E+01
 0.78500185220E+01 0.94155745429E+01 0.11183665661E+02 0.13049600716E+02 0.14828946141E+02
 0.16095412706E+02 0.16428331584E+02 0.15638698905E+02 0.13855453535E+02 0.11504018980E+02
 0.30413022343E+01 0.12865700531E+01 0.12866460750E+01 0.30414511443E+01 0.61221416890E+01
 0.97895270818E+01 0.13199989268E+02 0.15638682811E+02 0.16705732643E+02 0.16396525080E+02
 0.15056185415E+02 0.13229328782E+02 0.11352775582E+02 0.95986985477E+01 0.80675436967E+01
 0.68019211444E+01 0.57982220126E+01 0.50274145783E+01 0.44537830876E+01 0.40465716324E+01
 0.37846015595E+01 0.36560355748E+01 0.36560012753E+01 0.37845576128E+01 0.40465945258E+01
 0.44538363729E+01 0.50274098028E+01 0.57981696772E+01 0.68019149858E+01 0.80676018552E+01
 0.95987276387E+01 0.11352723261E+02 0.13229275681E+02 0.15056226003E+02 0.16396629595E+02
 0.16705804150E+02 0.15638698905E+02 0.13199993845E+02 0.97895124160E+01 0.61220488835E+01
 -.27957516186E+01 -.39737190403E+01 -.27957274962E+01 0.45059874431E+00 0.49897484179E+01
 0.97895730985E+01 0.13855500494E+02 0.16488911384E+02 0.17433045528E+02 0.16877055271E+02
 0.15334874685E+02 0.13433003538E+02 0.11544195389E+02 0.98173328692E+01 0.83374192926E+01
 0.71314731386E+01 0.61859095030E+01 0.54680523751E+01 0.49431998118E+01 0.45842118496E+01
 0.43742250387E+01 0.43050062467E+01 0.43742226734E+01 0.45842114806E+01 0.49432050334E+01
 0.54680622322E+01 0.61859196863E+01 0.71314795264E+01 0.83374208857E+01 0.98173335232E+01
 0.11544202666E+02 0.13433022964E+02 0.15334902903E+02 0.16877079446E+02 0.17433050748E+02
 0.16488889425E+02 0.13855453535E+02 0.97895124160E+01 0.49896886673E+01 0.45055302260E+00
 -.69959604392E+01 -.69960408296E+01 -.42927129612E+01 0.45053502442E+00 0.61221690811E+01
 0.11504163489E+02 0.15607897412E+02 0.17895751522E+02 0.18342824447E+02 0.17352726946E+02
 0.15573738278E+02 0.13616931910E+02 0.11741203225E+02 0.10070766681E+02 0.86672501457E+01
 0.75400095527E+01 0.66664240923E+01 0.60120611138E+01 0.55450997536E+01 0.52433629354E+01
 0.50948660948E+01 0.50948968730E+01 0.52434010565E+01 0.55450781000E+01 0.60120205895E+01
 0.66664476434E+01 0.75400756406E+01 0.86672583008E+01 0.10070702845E+02 0.11741172869E+02
 0.13616998719E+02 0.15573824972E+02 0.17352730732E+02 0.18342751851E+02 0.17895664901E+02
 0.15607795174E+02 0.11504018980E+02 0.61220488835E+01 0.45055302260E+00 -.42925773967E+01
 -.69959964836E+01 -.39736514233E+01 0.12865726186E+01 0.75004663256E+01 0.13312033495E+02
 0.17677517700E+02 0.20079758347E+02 0.20550193249E+02 0.19545744645E+02 0.17745479670E+02
 0.15768897581E+02 0.13871434117E+02 0.12172642955E+02 0.10733403488E+02 0.95658005785E+01
 0.86509651366E+01 0.79577883678E+01 0.74574012701E+01 0.71306711692E+01 0.69686149028E+01
 0.69685795761E+01 0.71306194442E+01 0.74574087662E+01 0.79578342854E+01 0.86509728564E+01
 0.95657615186E+01 0.10733378564E+02 0.12172653498E+02 0.13871435733E+02 0.15768873294E+02