   2   2   0   0
  0.2504317E+02  0.4137565E-09  0.4137565E-09  0.4137565E-09  0.5000000E-15
  1.000000000000000E-004
  CAR 
 unknown system                          
     13.75188272     -8.74346048  301      4.16675710      1.00000000
     -8.743  0.0000E+00  0.0000E+00
     -8.668  0.0000E+00  0.0000E+00
     -8.593  0.0000E+00  0.0000E+00
     -8.519  0.0000E+00  0.0000E+00
     -8.444  0.0000E+00  0.0000E+00
     -8.369  0.0000E+00  0.0000E+00
     -8.294  0.0000E+00  0.0000E+00
     -8.219  0.0000E+00  0.0000E+00
     -8.144  0.0000E+00  0.0000E+00
     -8.069  0.0000E+00  0.0000E+00
     -7.994  0.0000E+00  0.0000E+00
     -7.919  0.3856E-18  0.2891E-19
     -7.844  0.2506E-16  0.1908E-17
     -7.769  0.1439E-14  0.1098E-15
     -7.694  0.6268E-13  0.4810E-14
     -7.619  0.2072E-11  0.1602E-12
     -7.544  0.5205E-10  0.4063E-11
     -7.469  0.9950E-09  0.7867E-10
     -7.394  0.1451E-07  0.1166E-08
     -7.319  0.1617E-06  0.1329E-07
     -7.244  0.1385E-05  0.1172E-06
     -7.169  0.9163E-05  0.8042E-06
     -7.094  0.4716E-04  0.4340E-05
     -7.019  0.1906E-03  0.1863E-04
     -6.944  0.6123E-03  0.6454E-04
     -6.869  0.1584E-02  0.1833E-03
     -6.794  0.3356E-02  0.4350E-03
     -6.719  0.5938E-02  0.8802E-03
     -6.644  0.9011E-02  0.1556E-02
     -6.569  0.1215E-01  0.2467E-02
     -6.494  0.1510E-01  0.3599E-02
     -6.419  0.1780E-01  0.4934E-02
     -6.344  0.2010E-01  0.6442E-02
     -6.269  0.2190E-01  0.8084E-02
     -6.194  0.2358E-01  0.9852E-02
     -6.119  0.2571E-01  0.1178E-01
     -6.044  0.2818E-01  0.1389E-01
     -5.969  0.3012E-01  0.1615E-01
     -5.894  0.3115E-01  0.1849E-01
     -5.819  0.3201E-01  0.2089E-01
     -5.744  0.3363E-01  0.2341E-01
     -5.669  0.3614E-01  0.2612E-01
     -5.594  0.3907E-01  0.2905E-01
     -5.519  0.4187E-01  0.3219E-01
     -5.444  0.4386E-01  0.3548E-01
     -5.369  0.4469E-01  0.3883E-01
     -5.294  0.4515E-01  0.4221E-01
     -5.219  0.4728E-01  0.4576E-01
     -5.144  0.5253E-01  0.4970E-01
     -5.069  0.5970E-01  0.5418E-01
     -4.994  0.6575E-01  0.5911E-01
     -4.919  0.6887E-01  0.6427E-01
     -4.844  0.6942E-01  0.6948E-01
     -4.769  0.6788E-01  0.7457E-01
     -4.694  0.6414E-01  0.7938E-01
     -4.619  0.5950E-01  0.8384E-01
     -4.544  0.5727E-01  0.8813E-01
     -4.469  0.5952E-01  0.9259E-01
     -4.394  0.6369E-01  0.9737E-01
     -4.319  0.6437E-01  0.1022E+00
     -4.244  0.5862E-01  0.1066E+00
     -4.169  0.4857E-01  0.1102E+00
     -4.094  0.3888E-01  0.1132E+00
     -4.019  0.3301E-01  0.1156E+00
     -3.944  0.3212E-01  0.1180E+00
     -3.869  0.3538E-01  0.1207E+00
     -3.794  0.3987E-01  0.1237E+00
     -3.720  0.4120E-01  0.1268E+00
     -3.645  0.3628E-01  0.1295E+00
     -3.570  0.2614E-01  0.1314E+00
     -3.495  0.1508E-01  0.1326E+00
     -3.420  0.6994E-02  0.1331E+00
     -3.345  0.3166E-02  0.1333E+00
     -3.270  0.3412E-02  0.1336E+00
     -3.195  0.7969E-02  0.1342E+00
     -3.120  0.1718E-01  0.1355E+00
     -3.045  0.2906E-01  0.1377E+00
     -2.970  0.3854E-01  0.1405E+00
     -2.895  0.4108E-01  0.1436E+00
     -2.820  0.3717E-01  0.1464E+00
     -2.745  0.3174E-01  0.1488E+00
     -2.670  0.2976E-01  0.1510E+00
     -2.595  0.3364E-01  0.1536E+00
     -2.520  0.4378E-01  0.1568E+00
     -2.445  0.5886E-01  0.1612E+00
     -2.370  0.7505E-01  0.1669E+00
     -2.295  0.8653E-01  0.1734E+00
     -2.220  0.8884E-01  0.1800E+00
     -2.145  0.8209E-01  0.1862E+00
     -2.070  0.7039E-01  0.1915E+00
     -1.995  0.5850E-01  0.1958E+00
     -1.920  0.4970E-01  0.1996E+00
     -1.845  0.4510E-01  0.2030E+00
     -1.770  0.4344E-01  0.2062E+00
     -1.695  0.4210E-01  0.2094E+00
     -1.620  0.3966E-01  0.2123E+00
     -1.545  0.3736E-01  0.2151E+00
     -1.470  0.3710E-01  0.2179E+00
     -1.395  0.3824E-01  0.2208E+00
     -1.320  0.3769E-01  0.2236E+00
     -1.245  0.3344E-01  0.2261E+00
     -1.170  0.2705E-01  0.2282E+00
     -1.095  0.2220E-01  0.2298E+00
     -1.020  0.2092E-01  0.2314E+00
     -0.945  0.2209E-01  0.2330E+00
     -0.870  0.2342E-01  0.2348E+00
     -0.795  0.2365E-01  0.2366E+00
     -0.720  0.2265E-01  0.2383E+00
     -0.645  0.2068E-01  0.2398E+00
     -0.570  0.1852E-01  0.2412E+00
     -0.495  0.1749E-01  0.2425E+00
     -0.420  0.1825E-01  0.2439E+00
     -0.345  0.1963E-01  0.2454E+00
     -0.270  0.1954E-01  0.2468E+00
     -0.195  0.1701E-01  0.2481E+00
     -0.120  0.1303E-01  0.2491E+00
     -0.045  0.9729E-02  0.2498E+00
      0.030  0.8896E-02  0.2505E+00
      0.105  0.1106E-01  0.2513E+00
      0.180  0.1573E-01  0.2525E+00
      0.255  0.2283E-01  0.2542E+00
      0.330  0.3321E-01  0.2567E+00
      0.405  0.4699E-01  0.2602E+00
      0.480  0.6224E-01  0.2649E+00
      0.555  0.7596E-01  0.2706E+00
      0.630  0.8584E-01  0.2770E+00
      0.705  0.9079E-01  0.2838E+00
      0.780  0.9132E-01  0.2907E+00
      0.855  0.8973E-01  0.2974E+00
      0.930  0.8853E-01  0.3040E+00
      1.005  0.8830E-01  0.3107E+00
      1.080  0.8827E-01  0.3173E+00
      1.154  0.8866E-01  0.3239E+00
      1.229  0.9135E-01  0.3308E+00
      1.304  0.9742E-01  0.3381E+00
      1.379  0.1049E+00  0.3459E+00
      1.454  0.1105E+00  0.3542E+00
      1.529  0.1137E+00  0.3628E+00
      1.604  0.1169E+00  0.3715E+00
      1.679  0.1209E+00  0.3806E+00
      1.754  0.1225E+00  0.3898E+00
      1.829  0.1194E+00  0.3987E+00
      1.904  0.1144E+00  0.4073E+00
      1.979  0.1125E+00  0.4158E+00
      2.054  0.1139E+00  0.4243E+00
      2.129  0.1137E+00  0.4328E+00
      2.204  0.1086E+00  0.4410E+00
      2.279  0.1017E+00  0.4486E+00
      2.354  0.9938E-01  0.4560E+00
      2.429  0.1030E+00  0.4638E+00
      2.504  0.1075E+00  0.4718E+00
      2.579  0.1065E+00  0.4798E+00
      2.654  0.9802E-01  0.4872E+00
      2.729  0.8566E-01  0.4936E+00
      2.804  0.7514E-01  0.4992E+00
      2.879  0.6925E-01  0.5044E+00
      2.954  0.6537E-01  0.5093E+00
      3.029  0.5904E-01  0.5137E+00
      3.104  0.4957E-01  0.5174E+00
      3.179  0.4046E-01  0.5205E+00
      3.254  0.3463E-01  0.5231E+00
      3.329  0.3128E-01  0.5254E+00
      3.404  0.2781E-01  0.5275E+00
      3.479  0.2304E-01  0.5292E+00
      3.554  0.1784E-01  0.5306E+00
      3.629  0.1335E-01  0.5316E+00
      3.704  0.9730E-02  0.5323E+00
      3.779  0.6634E-02  0.5328E+00
      3.854  0.3969E-02  0.5331E+00
      3.929  0.1980E-02  0.5332E+00
      4.004  0.7965E-03  0.5333E+00
      4.079  0.2542E-03  0.5333E+00
      4.154  0.6927E-04  0.5333E+00
      4.229  0.4408E-04  0.5333E+00
      4.304  0.1247E-03  0.5333E+00
      4.379  0.3726E-03  0.5334E+00
      4.454  0.9298E-03  0.5334E+00
      4.529  0.2042E-02  0.5336E+00
      4.604  0.4188E-02  0.5339E+00
      4.679  0.8065E-02  0.5345E+00
      4.754  0.1401E-01  0.5356E+00
      4.829  0.2128E-01  0.5372E+00
      4.904  0.2857E-01  0.5393E+00
      4.979  0.3550E-01  0.5420E+00
      5.054  0.4292E-01  0.5452E+00
      5.129  0.5133E-01  0.5490E+00
      5.204  0.6030E-01  0.5536E+00
      5.279  0.6967E-01  0.5588E+00
      5.354  0.7987E-01  0.5648E+00
      5.429  0.9034E-01  0.5715E+00
      5.504  0.9915E-01  0.5790E+00
      5.579  0.1054E+00  0.5869E+00
      5.654  0.1107E+00  0.5952E+00
      5.729  0.1179E+00  0.6040E+00
      5.804  0.1256E+00  0.6134E+00
      5.879  0.1287E+00  0.6231E+00
      5.953  0.1224E+00  0.6323E+00
      6.028  0.1086E+00  0.6404E+00
      6.103  0.9452E-01  0.6475E+00
      6.178  0.8618E-01  0.6540E+00
      6.253  0.8387E-01  0.6602E+00
      6.328  0.8295E-01  0.6665E+00
      6.403  0.7869E-01  0.6724E+00
      6.478  0.7165E-01  0.6777E+00
      6.553  0.6782E-01  0.6828E+00
      6.628  0.7250E-01  0.6883E+00
      6.703  0.8502E-01  0.6946E+00
      6.778  0.1006E+00  0.7022E+00
      6.853  0.1161E+00  0.7109E+00
      6.928  0.1311E+00  0.7207E+00
      7.003  0.1433E+00  0.7315E+00
      7.078  0.1475E+00  0.7425E+00
      7.153  0.1401E+00  0.7530E+00
      7.228  0.1247E+00  0.7624E+00
      7.303  0.1092E+00  0.7706E+00
      7.378  0.9950E-01  0.7780E+00
      7.453  0.9655E-01  0.7853E+00
      7.528  0.9848E-01  0.7927E+00
      7.603  0.1017E+00  0.8003E+00
      7.678  0.1016E+00  0.8079E+00
      7.753  0.9614E-01  0.8151E+00
      7.828  0.8884E-01  0.8218E+00
      7.903  0.8551E-01  0.8282E+00
      7.978  0.8921E-01  0.8349E+00
      8.053  0.9935E-01  0.8423E+00
      8.128  0.1128E+00  0.8508E+00
      8.203  0.1238E+00  0.8601E+00
      8.278  0.1257E+00  0.8695E+00
      8.353  0.1171E+00  0.8783E+00
      8.428  0.1037E+00  0.8861E+00
      8.503  0.9242E-01  0.8930E+00
      8.578  0.8525E-01  0.8994E+00
      8.653  0.8093E-01  0.9054E+00
      8.728  0.7978E-01  0.9114E+00
      8.803  0.8381E-01  0.9177E+00
      8.878  0.9249E-01  0.9246E+00
      8.953  0.1012E+00  0.9322E+00
      9.028  0.1048E+00  0.9401E+00
      9.103  0.1015E+00  0.9477E+00
      9.178  0.9278E-01  0.9547E+00
      9.253  0.8086E-01  0.9607E+00
      9.328  0.6908E-01  0.9659E+00
      9.403  0.6124E-01  0.9705E+00
      9.478  0.5841E-01  0.9749E+00
      9.553  0.5807E-01  0.9792E+00
      9.628  0.5823E-01  0.9836E+00
      9.703  0.6046E-01  0.9881E+00
      9.778  0.6695E-01  0.9931E+00
      9.853  0.7628E-01  0.9989E+00
      9.928  0.8349E-01  0.1005E+01
     10.003  0.8388E-01  0.1011E+01
     10.078  0.7609E-01  0.1017E+01
     10.153  0.6305E-01  0.1022E+01
     10.228  0.5020E-01  0.1026E+01
     10.303  0.4132E-01  0.1029E+01
     10.378  0.3606E-01  0.1031E+01
     10.453  0.3262E-01  0.1034E+01
     10.528  0.3139E-01  0.1036E+01
     10.603  0.3378E-01  0.1039E+01
     10.678  0.3905E-01  0.1042E+01
     10.753  0.4400E-01  0.1045E+01
     10.827  0.4545E-01  0.1048E+01
     10.902  0.4254E-01  0.1052E+01
     10.977  0.3669E-01  0.1054E+01
     11.052  0.2975E-01  0.1057E+01
     11.127  0.2289E-01  0.1058E+01
     11.202  0.1702E-01  0.1060E+01
     11.277  0.1310E-01  0.1061E+01
     11.352  0.1136E-01  0.1061E+01
     11.427  0.1068E-01  0.1062E+01
     11.502  0.9846E-02  0.1063E+01
     11.577  0.9011E-02  0.1064E+01
     11.652  0.8967E-02  0.1064E+01
     11.727  0.9385E-02  0.1065E+01
     11.802  0.8885E-02  0.1066E+01
     11.877  0.6834E-02  0.1066E+01
     11.952  0.4087E-02  0.1066E+01
     12.027  0.1874E-02  0.1067E+01
     12.102  0.6552E-03  0.1067E+01
     12.177  0.1746E-03  0.1067E+01
     12.252  0.3541E-04  0.1067E+01
     12.327  0.5465E-05  0.1067E+01
     12.402  0.6418E-06  0.1067E+01
     12.477  0.5731E-07  0.1067E+01
     12.552  0.3890E-08  0.1067E+01
     12.627  0.2006E-09  0.1067E+01
     12.702  0.7861E-11  0.1067E+01
     12.777  0.2338E-12  0.1067E+01
     12.852  0.5279E-14  0.1067E+01
     12.927  0.9254E-16  0.1067E+01
     13.002  0.0000E+00  0.1067E+01
     13.077  0.0000E+00  0.1067E+01
     13.152  0.0000E+00  0.1067E+01
     13.227  0.0000E+00  0.1067E+01
     13.302  0.0000E+00  0.1067E+01
     13.377  0.0000E+00  0.1067E+01
     13.452  0.0000E+00  0.1067E+01
     13.527  0.0000E+00  0.1067E+01
     13.602  0.0000E+00  0.1067E+01
     13.677  0.0000E+00  0.1067E+01
     13.752  0.0000E+00  0.1067E+01
