 vasp.5.4.4.18Apr17-6-g9f103f2a35 (build Dec 09 2018 21:25:21) complex          
  
 executed on IFC18.0.1.163_CrayMP date 2019.04.01  16:02:56
 running on    8 total cores
 distrk:  each k-point on    8 cores,    1 groups
 distr:  one band on NCORES_PER_BAND=   1 cores,    8 groups


--------------------------------------------------------------------------------------------------------


 INCAR:
 POTCAR:   PAW_PBE Si 05Jan2001                   

 ----------------------------------------------------------------------------- 
|                                                                             |
|           W    W    AA    RRRRR   N    N  II  N    N   GGGG   !!!           |
|           W    W   A  A   R    R  NN   N  II  NN   N  G    G  !!!           |
|           W    W  A    A  R    R  N N  N  II  N N  N  G       !!!           |
|           W WW W  AAAAAA  RRRRR   N  N N  II  N  N N  G  GGG   !            |
|           WW  WW  A    A  R   R   N   NN  II  N   NN  G    G                |
|           W    W  A    A  R    R  N    N  II  N    N   GGGG   !!!           |
|                                                                             |
|      For optimal performance we recommend to set                            |
|        NCORE= 4 - approx SQRT( number of cores)                             |
|      NCORE specifies how many cores store one orbital (NPAR=cpu/NCORE).     |
|      This setting can  greatly improve the performance of VASP for DFT.     |
|      The default,   NCORE=1            might be grossly inefficient         |
|      on modern multi-core architectures or massively parallel machines.     |
|      Do your own testing !!!!                                               |
|      Unfortunately you need to use the default for GW and RPA calculations. |
|      (for HF NCORE is supported but not extensively tested yet)             |
|                                                                             |
 ----------------------------------------------------------------------------- 

 POTCAR:   PAW_PBE Si 05Jan2001                   
   VRHFIN =Si: s2p2                                                             
   LEXCH  = PE                                                                  
   EATOM  =   103.0669 eV,    7.5752 Ry                                         
                                                                                
   TITEL  = PAW_PBE Si 05Jan2001                                                
   LULTRA =        F    use ultrasoft PP ?                                      
   IUNSCR =        1    unscreen: 0-lin 1-nonlin 2-no                           
   RPACOR =    1.500    partial core radius                                     
   POMASS =   28.085; ZVAL   =    4.000    mass and valenz                      
   RCORE  =    1.900    outmost cutoff radius                                   
   RWIGS  =    2.480; RWIGS  =    1.312    wigner-seitz radius (au A)           
   ENMAX  =  245.345; ENMIN  =  184.009 eV                                      
   ICORE  =        2    local potential                                         
   LCOR   =        T    correct aug charges                                     
   LPAW   =        T    paw PP                                                  
   EAUG   =  322.069                                                            
   DEXC   =    -.007                                                            
   RMAX   =    2.944    core radius for proj-oper                               
   RAUG   =    1.300    factor for augmentation sphere                          
   RDEP   =    1.993    radius for radial grids                                 
   QCUT   =   -4.246; QGAM   =    8.493    optimization parameters              
                                                                                
   Description                                                                  
     l     E      TYP  RCUT    TYP  RCUT                                        
     0   .000     23  1.900                                                     
     0   .000     23  1.900                                                     
     1   .000     23  1.900                                                     
     1   .000     23  1.900                                                     
     2   .000      7  1.900                                                     
  local pseudopotential read in
  partial core-charges read in
  atomic valenz-charges read in
  non local Contribution for L=           0  read in
    real space projection operators read in
  non local Contribution for L=           0  read in
    real space projection operators read in
  non local Contribution for L=           1  read in
    real space projection operators read in
  non local Contribution for L=           1  read in
    real space projection operators read in
    PAW grid and wavefunctions read in
 
   number of l-projection  operators is LMAX  =           4
   number of lm-projection operators is LMMAX =           8
 
 PAW_PBE Si 05Jan2001                   :
 energy of atom  1       EATOM= -103.0669
 kinetic energy error for atom=    0.0013 (will be added to EATOM!!)
 
 
 POSCAR: Si2                                     
  positions in direct lattice
  No initial velocities read in
 exchange correlation table for  LEXCH =        8
   RHO(1)=    0.500       N(1)  =     2000
   RHO(2)=  100.500       N(2)  =     4000
 


--------------------------------------------------------------------------------------------------------


 ion  position               nearest neighbor table
   1  0.000  0.000  0.000-   2 2.53   2 2.53   2 2.53   2 2.53
   2  0.250  0.250  0.250-   1 2.53   1 2.53   1 2.53   1 2.53
 
  LATTYP: Found a face centered cubic cell.
 ALAT       =     5.8514000000
  
  Lattice vectors:
  
 A1 = (   0.0000000000,   2.9257000000,   2.9257000000)
 A2 = (   2.9257000000,   0.0000000000,   2.9257000000)
 A3 = (   2.9257000000,   2.9257000000,   0.0000000000)


Analysis of symmetry for initial positions (statically):
=====================================================================
 Subroutine PRICEL returns:
 Original cell was already a primitive cell.
 

 Routine SETGRP: Setting up the symmetry group for a 
 face centered cubic supercell.


 Subroutine GETGRP returns: Found 48 space group operations
 (whereof 24 operations were pure point group operations)
 out of a pool of 48 trial point group operations.


The static configuration has the point symmetry T_d .
 The point group associated with its full space group is O_h .


Analysis of symmetry for dynamics (positions and initial velocities):
=====================================================================
 Subroutine PRICEL returns:
 Original cell was already a primitive cell.
 

 Routine SETGRP: Setting up the symmetry group for a 
 face centered cubic supercell.


 Subroutine GETGRP returns: Found 48 space group operations
 (whereof 24 operations were pure point group operations)
 out of a pool of 48 trial point group operations.


The dynamic configuration has the point symmetry T_d .
 The point group associated with its full space group is O_h .


 Subroutine INISYM returns: Found 48 space group operations
 (whereof 24 operations are pure point group operations),
 and found     1 'primitive' translations

 
 
 KPOINTS: Automatic kpoint scheme                 

Automatic generation of k-mesh.
Space group operators:
 irot       det(A)        alpha          n_x          n_y          n_z        tau_x        tau_y        tau_z
    1     1.000000     0.000000     1.000000     0.000000     0.000000     0.000000     0.000000     0.000000
    2     1.000000   120.000000    -0.577350    -0.577350    -0.577350     0.000000     0.000000     0.000000
    3     1.000000   120.000000     0.577350     0.577350     0.577350     0.000000     0.000000     0.000000
    4    -1.000000    90.000000    -0.000000     0.000000    -1.000000     0.000000     0.000000     0.000000
    5    -1.000000   180.000000     0.000000     0.707107     0.707107     0.000000     0.000000     0.000000
    6    -1.000000    90.000000    -0.000000     1.000000    -0.000000     0.000000     0.000000     0.000000
    7     1.000000   180.000000    -0.000000     0.000000     1.000000     0.000000     0.000000     0.000000
    8     1.000000   120.000000    -0.577350     0.577350     0.577350     0.000000     0.000000     0.000000
    9     1.000000   120.000000    -0.577350     0.577350    -0.577350     0.000000     0.000000     0.000000
   10    -1.000000    90.000000     0.000000     0.000000     1.000000     0.000000     0.000000     0.000000
   11    -1.000000    90.000000    -1.000000     0.000000     0.000000     0.000000     0.000000     0.000000
   12    -1.000000   180.000000     0.707107     0.000000     0.707107     0.000000     0.000000     0.000000
   13     1.000000   120.000000     0.577350    -0.577350     0.577350     0.000000     0.000000     0.000000
   14     1.000000   120.000000    -0.577350    -0.577350     0.577350     0.000000     0.000000     0.000000
   15     1.000000   180.000000     1.000000     0.000000     0.000000     0.000000     0.000000     0.000000
   16    -1.000000    90.000000     0.000000    -1.000000     0.000000     0.000000     0.000000     0.000000
   17    -1.000000   180.000000     0.707107     0.707107    -0.000000     0.000000     0.000000     0.000000
   18    -1.000000    90.000000     1.000000     0.000000     0.000000     0.000000     0.000000     0.000000
   19     1.000000   120.000000     0.577350    -0.577350    -0.577350     0.000000     0.000000     0.000000
   20     1.000000   180.000000    -0.000000    -1.000000    -0.000000     0.000000     0.000000     0.000000
   21     1.000000   120.000000     0.577350     0.577350    -0.577350     0.000000     0.000000     0.000000
   22    -1.000000   180.000000    -0.000000    -0.707107     0.707107     0.000000     0.000000     0.000000
   23    -1.000000   180.000000     0.707107    -0.707107     0.000000     0.000000     0.000000     0.000000
   24    -1.000000   180.000000     0.707107     0.000000    -0.707107     0.000000     0.000000     0.000000
   25    -1.000000     0.000000     1.000000     0.000000     0.000000     0.250000     0.250000     0.250000
   26    -1.000000   120.000000    -0.577350    -0.577350    -0.577350     0.250000     0.250000     0.250000
   27    -1.000000   120.000000     0.577350     0.577350     0.577350     0.250000     0.250000     0.250000
   28     1.000000    90.000000    -0.000000     0.000000    -1.000000     0.250000     0.250000     0.250000
   29     1.000000   180.000000     0.000000     0.707107     0.707107     0.250000     0.250000     0.250000
   30     1.000000    90.000000    -0.000000     1.000000    -0.000000     0.250000     0.250000     0.250000
   31    -1.000000   180.000000    -0.000000     0.000000     1.000000     0.250000     0.250000     0.250000
   32    -1.000000   120.000000    -0.577350     0.577350     0.577350     0.250000     0.250000     0.250000
   33    -1.000000   120.000000    -0.577350     0.577350    -0.577350     0.250000     0.250000     0.250000
   34     1.000000    90.000000     0.000000     0.000000     1.000000     0.250000     0.250000     0.250000
   35     1.000000    90.000000    -1.000000     0.000000     0.000000     0.250000     0.250000     0.250000
   36     1.000000   180.000000     0.707107     0.000000     0.707107     0.250000     0.250000     0.250000
   37    -1.000000   120.000000     0.577350    -0.577350     0.577350     0.250000     0.250000     0.250000
   38    -1.000000   120.000000    -0.577350    -0.577350     0.577350     0.250000     0.250000     0.250000
   39    -1.000000   180.000000     1.000000     0.000000     0.000000     0.250000     0.250000     0.250000
   40     1.000000    90.000000     0.000000    -1.000000     0.000000     0.250000     0.250000     0.250000
   41     1.000000   180.000000     0.707107     0.707107    -0.000000     0.250000     0.250000     0.250000
   42     1.000000    90.000000     1.000000     0.000000     0.000000     0.250000     0.250000     0.250000
   43    -1.000000   120.000000     0.577350    -0.577350    -0.577350     0.250000     0.250000     0.250000
   44    -1.000000   180.000000    -0.000000    -1.000000    -0.000000     0.250000     0.250000     0.250000
   45    -1.000000   120.000000     0.577350     0.577350    -0.577350     0.250000     0.250000     0.250000
   46     1.000000   180.000000    -0.000000    -0.707107     0.707107     0.250000     0.250000     0.250000
   47     1.000000   180.000000     0.707107    -0.707107     0.000000     0.250000     0.250000     0.250000
   48     1.000000   180.000000     0.707107     0.000000    -0.707107     0.250000     0.250000     0.250000
 
 Subroutine IBZKPT returns following result:
 ===========================================
 
 Found     60 irreducible k-points:
 
 Following reciprocal coordinates:
            Coordinates               Weight
  0.062500  0.062500  0.062500     96.000000
  0.187500  0.062500  0.062500    288.000000
  0.312500  0.062500  0.062500    288.000000
  0.437500  0.062500  0.062500    288.000000
 -0.437500  0.062500  0.062500    288.000000
 -0.312500  0.062500  0.062500    288.000000
 -0.187500  0.062500  0.062500    288.000000
 -0.062500  0.062500  0.062500    288.000000
  0.187500  0.187500  0.062500    288.000000
  0.312500  0.187500  0.062500    576.000000
  0.437500  0.187500  0.062500    576.000000
 -0.437500  0.187500  0.062500    576.000000
 -0.312500  0.187500  0.062500    576.000000
 -0.187500  0.187500  0.062500    576.000000
 -0.062500  0.187500  0.062500    576.000000
  0.312500  0.312500  0.062500    288.000000
  0.437500  0.312500  0.062500    576.000000
 -0.437500  0.312500  0.062500    576.000000
 -0.312500  0.312500  0.062500    576.000000
 -0.187500  0.312500  0.062500    576.000000
 -0.062500  0.312500  0.062500    576.000000
  0.437500  0.437500  0.062500    288.000000
 -0.437500  0.437500  0.062500    576.000000
 -0.312500  0.437500  0.062500    576.000000
 -0.187500  0.437500  0.062500    576.000000
 -0.062500  0.437500  0.062500    576.000000
 -0.437500 -0.437500  0.062500    288.000000
 -0.312500 -0.437500  0.062500    576.000000
 -0.187500 -0.437500  0.062500    576.000000
 -0.312500 -0.312500  0.062500    288.000000
 -0.187500 -0.312500  0.062500    576.000000
 -0.187500 -0.187500  0.062500    288.000000
  0.187500  0.187500  0.187500     96.000000
  0.312500  0.187500  0.187500    288.000000
  0.437500  0.187500  0.187500    288.000000
 -0.437500  0.187500  0.187500    288.000000
 -0.312500  0.187500  0.187500    288.000000
 -0.187500  0.187500  0.187500    288.000000
  0.312500  0.312500  0.187500    288.000000
  0.437500  0.312500  0.187500    576.000000
 -0.437500  0.312500  0.187500    576.000000
 -0.312500  0.312500  0.187500    576.000000
 -0.187500  0.312500  0.187500    576.000000
  0.437500  0.437500  0.187500    288.000000
 -0.437500  0.437500  0.187500    576.000000
 -0.312500  0.437500  0.187500    576.000000
 -0.187500  0.437500  0.187500    576.000000
 -0.437500 -0.437500  0.187500    288.000000
 -0.312500 -0.437500  0.187500    576.000000
 -0.312500 -0.312500  0.187500    288.000000
  0.312500  0.312500  0.312500     96.000000
  0.437500  0.312500  0.312500    288.000000
 -0.437500  0.312500  0.312500    288.000000
 -0.312500  0.312500  0.312500    288.000000
  0.437500  0.437500  0.312500    288.000000
 -0.437500  0.437500  0.312500    576.000000
 -0.312500  0.437500  0.312500    576.000000
 -0.437500 -0.437500  0.312500    288.000000
  0.437500  0.437500  0.437500     96.000000
 -0.437500  0.437500  0.437500    288.000000
 
 Following cartesian coordinates:
            Coordinates               Weight
  0.010681  0.010681  0.010681     96.000000
 -0.010681  0.032044  0.032044    288.000000
 -0.032044  0.053406  0.053406    288.000000
 -0.053406  0.074768  0.074768    288.000000
  0.096131 -0.074768 -0.074768    288.000000
  0.074768 -0.053406 -0.053406    288.000000
  0.053406 -0.032044 -0.032044    288.000000
  0.032044 -0.010681 -0.010681    288.000000
  0.010681  0.010681  0.053406    288.000000
 -0.010681  0.032044  0.074768    576.000000
 -0.032044  0.053406  0.096131    576.000000
  0.117493 -0.096131 -0.053406    576.000000
  0.096131 -0.074768 -0.032044    576.000000
  0.074768 -0.053406 -0.010681    576.000000
  0.053406 -0.032044  0.010681    576.000000
  0.010681  0.010681  0.096131    288.000000
 -0.010681  0.032044  0.117493    576.000000
  0.138856 -0.117493 -0.032044    576.000000
  0.117493 -0.096131 -0.010681    576.000000
  0.096131 -0.074768  0.010681    576.000000
  0.074768 -0.053406  0.032044    576.000000
  0.010681  0.010681  0.138856    288.000000
  0.160218 -0.138856 -0.010681    576.000000
  0.138856 -0.117493  0.010681    576.000000
  0.117493 -0.096131  0.032044    576.000000
  0.096131 -0.074768  0.053406    576.000000
  0.010681  0.010681 -0.160218    288.000000
 -0.010681  0.032044 -0.138856    576.000000
 -0.032044  0.053406 -0.117493    576.000000
  0.010681  0.010681 -0.117493    288.000000
 -0.010681  0.032044 -0.096131    576.000000
  0.010681  0.010681 -0.074768    288.000000
  0.032044  0.032044  0.032044     96.000000
  0.010681  0.053406  0.053406    288.000000
 -0.010681  0.074768  0.074768    288.000000
  0.138856 -0.074768 -0.074768    288.000000
  0.117493 -0.053406 -0.053406    288.000000
  0.096131 -0.032044 -0.032044    288.000000
  0.032044  0.032044  0.074768    288.000000
  0.010681  0.053406  0.096131    576.000000
  0.160218 -0.096131 -0.053406    576.000000
  0.138856 -0.074768 -0.032044    576.000000
  0.117493 -0.053406 -0.010681    576.000000
  0.032044  0.032044  0.117493    288.000000
  0.181580 -0.117493 -0.032044    576.000000
  0.160218 -0.096131 -0.010681    576.000000
  0.138856 -0.074768  0.010681    576.000000
  0.032044  0.032044 -0.181580    288.000000
  0.010681  0.053406 -0.160218    576.000000
  0.032044  0.032044 -0.138856    288.000000
  0.053406  0.053406  0.053406     96.000000
  0.032044  0.074768  0.074768    288.000000
  0.181580 -0.074768 -0.074768    288.000000
  0.160218 -0.053406 -0.053406    288.000000
  0.053406  0.053406  0.096131    288.000000
  0.202943 -0.096131 -0.053406    576.000000
  0.181580 -0.074768 -0.032044    576.000000
  0.053406  0.053406 -0.202943    288.000000
  0.074768  0.074768  0.074768     96.000000
  0.224305 -0.074768 -0.074768    288.000000
 


--------------------------------------------------------------------------------------------------------




 Dimension of arrays:
   k-points           NKPTS =     60   k-points in BZ     NKDIM =     60   number of bands    NBANDS=      8
   number of dos      NEDOS =    301   number of ions     NIONS =      2
   non local maximal  LDIM  =      4   non local SUM 2l+1 LMDIM =      8
   total plane-waves  NPLWV =   8000
   max r-space proj   IRMAX =      1   max aug-charges    IRDMAX=   5539
   dimension x,y,z NGX =    20 NGY =   20 NGZ =   20
   dimension x,y,z NGXF=    40 NGYF=   40 NGZF=   40
   support grid    NGXF=    40 NGYF=   40 NGZF=   40
   ions per type =               2
   NGX,Y,Z   is equivalent  to a cutoff of   8.04,  8.04,  8.04 a.u.
   NGXF,Y,Z  is equivalent  to a cutoff of  16.07, 16.07, 16.07 a.u.

 SYSTEM =  unknown system                          
 POSCAR =  Si2                                     

 Startparameter for this run:
   NWRITE =      2    write-flag & timer
   PREC   = normal    normal or accurate (medium, high low for compatibility)
   ISTART =      0    job   : 0-new  1-cont  2-samecut
   ICHARG =      2    charge: 1-file 2-atom 10-const
   ISPIN  =      1    spin polarized calculation?
   LNONCOLLINEAR =      F non collinear calculations
   LSORBIT =      F    spin-orbit coupling
   INIWAV =      1    electr: 0-lowe 1-rand  2-diag
   LASPH  =      F    aspherical Exc in radial PAW
   METAGGA=      F    non-selfconsistent MetaGGA calc.

 Electronic Relaxation 1
   ENCUT  =  350.0 eV  25.72 Ry    5.07 a.u.   6.31  6.31  6.31*2*pi/ulx,y,z
   ENINI  =  350.0     initial cutoff
   ENAUG  =  322.1 eV  augmentation charge cutoff
   NELM   =     60;   NELMIN=  2; NELMDL= -5     # of ELM steps 
   EDIFF  = 0.4E-03   stopping-criterion for ELM
   LREAL  =      F    real-space projection
   NLSPLINE    = F    spline interpolate recip. space projectors
   LCOMPAT=      F    compatible to vasp.4.4
   GGA_COMPAT  = T    GGA compatible to vasp.4.4-vasp.4.6
   LMAXPAW     = -100 max onsite density
   LMAXMIX     =    2 max onsite mixed and CHGCAR
   VOSKOWN=      0    Vosko Wilk Nusair interpolation
   ROPT   =    0.00000
 Ionic relaxation
   EDIFFG = -.1E-01   stopping-criterion for IOM
   NSW    =     15    number of steps for IOM
   NBLOCK =      1;   KBLOCK =     15    inner block; outer block 
   IBRION =      2    ionic relax: 0-MD 1-quasi-New 2-CG
   NFREE  =      1    steps in history (QN), initial steepest desc. (CG)
   ISIF   =      2    stress and relaxation
   IWAVPR =     11    prediction:  0-non 1-charg 2-wave 3-comb
   ISYM   =      2    0-nonsym 1-usesym 2-fastsym
   LCORR  =      T    Harris-Foulkes like correction to forces

   POTIM  = 0.5000    time-step for ionic-motion
   TEIN   =    0.0    initial temperature
   TEBEG  =    0.0;   TEEND  =   0.0 temperature during run
   SMASS  =  -3.00    Nose mass-parameter (am)
   estimated Nose-frequenzy (Omega)   =  0.10E-29 period in steps =****** mass=  -0.391E-27a.u.
   SCALEE = 1.0000    scale energy and forces
   NPACO  =    256;   APACO  = 16.0  distance and # of slots for P.C.
   PSTRESS=    0.0 pullay stress

  Mass of Ions in am
   POMASS =  28.09
  Ionic Valenz
   ZVAL   =   4.00
  Atomic Wigner-Seitz radii
   RWIGS  =  -1.00
  virtual crystal weights 
   VCA    =   1.00
   NELECT =       8.0000    total number of electrons
   NUPDOWN=      -1.0000    fix difference up-down

 DOS related values:
   EMIN   =  10.00;   EMAX   =-10.00  energy-range for DOS
   EFERMI =   0.00
   ISMEAR =     0;   SIGMA  =   0.20  broadening in eV -4-tet -1-fermi 0-gaus

 Electronic relaxation 2 (details)
   IALGO  =     38    algorithm
   LDIAG  =      T    sub-space diagonalisation (order eigenvalues)
   LSUBROT=      F    optimize rotation matrix (better conditioning)
   TURBO    =      0    0=normal 1=particle mesh
   IRESTART =      0    0=no restart 2=restart with 2 vectors
   NREBOOT  =      0    no. of reboots
   NMIN     =      0    reboot dimension
   EREF     =   0.00    reference energy to select bands
   IMIX   =      4    mixing-type and parameters
     AMIX     =   0.40;   BMIX     =  1.00
     AMIX_MAG =   1.60;   BMIX_MAG =  1.00
     AMIN     =   0.10
     WC   =   100.;   INIMIX=   1;  MIXPRE=   1;  MAXMIX= -45

 Intra band minimization:
   WEIMIN = 0.0010     energy-eigenvalue tresh-hold
   EBREAK =  0.13E-04  absolut break condition
   DEPER  =   0.30     relativ break condition  

   TIME   =   0.40     timestep for ELM

  volume/ion in A,a.u.               =      25.04       169.00
  Fermi-wavevector in a.u.,A,eV,Ry     =   0.888243  1.678536 10.734661  0.788975
  Thomas-Fermi vector in A             =   2.009647
 
 Write flags
   LWAVE        =      T    write WAVECAR
   LDOWNSAMPLE  =      F    k-point downsampling of WAVECAR
   LCHARG       =      T    write CHGCAR
   LVTOT        =      F    write LOCPOT, total local potential
   LVHAR        =      F    write LOCPOT, Hartree potential only
   LELF         =      F    write electronic localiz. function (ELF)
   LORBIT       =      0    0 simple, 1 ext, 2 COOP (PROOUT), +10 PAW based schemes


 Dipole corrections
   LMONO  =      F    monopole corrections only (constant potential shift)
   LDIPOL =      F    correct potential (dipole corrections)
   IDIPOL =      0    1-x, 2-y, 3-z, 4-all directions 
   EPSILON=  1.0000000 bulk dielectric constant

 Exchange correlation treatment:
   GGA     =    --    GGA type
   LEXCH   =     8    internal setting for exchange type
   VOSKOWN=      0    Vosko Wilk Nusair interpolation
   LHFCALC =     F    Hartree Fock is set to
   LHFONE  =     F    Hartree Fock one center treatment
   AEXX    =    0.0000 exact exchange contribution

 Linear response parameters
   LEPSILON=     F    determine dielectric tensor
   LRPA    =     F    only Hartree local field effects (RPA)
   LNABLA  =     F    use nabla operator in PAW spheres
   LVEL    =     F    velocity operator in full k-point grid
   LINTERFAST=   F  fast interpolation
   KINTER  =     0    interpolate to denser k-point grid
   CSHIFT  =0.1000    complex shift for real part using Kramers Kronig
   OMEGAMAX=  -1.0    maximum frequency
   DEG_THRESHOLD= 0.2000000E-02 threshold for treating states as degnerate
   RTIME   =   -0.100 relaxation time in fs
  (WPLASMAI=    0.000 imaginary part of plasma frequency in eV, 0.658/RTIME)
   DFIELD  = 0.0000000 0.0000000 0.0000000 field for delta impulse in time
 
 Orbital magnetization related:
   ORBITALMAG=     F  switch on orbital magnetization
   LCHIMAG   =     F  perturbation theory with respect to B field
   DQ        =  0.001000  dq finite difference perturbation B field
   LLRAUG    =     F  two centre corrections for induced B field



--------------------------------------------------------------------------------------------------------


 conjugate gradient relaxation of ions
 charge density and potential will be updated during run
 non-spin polarized calculation
 Variant of blocked Davidson
 Davidson routine will perform the subspace rotation
 perform sub-space diagonalisation
    after iterative eigenvector-optimisation
 modified Broyden-mixing scheme, WC =      100.0
 initial mixing is a Kerker type mixing with AMIX =  0.4000 and BMIX =      1.0000
 Hartree-type preconditioning will be used
 using additional bands            4
 reciprocal scheme for non local part
 use partial core corrections
 calculate Harris-corrections to forces 
   (improved forces if not selfconsistent)
 use gradient corrections 
 use of overlap-Matrix (Vanderbilt PP)
 Gauss-broadening in eV      SIGMA  =   0.20


--------------------------------------------------------------------------------------------------------


  energy-cutoff  :      350.00
  volume of cell :       50.09
      direct lattice vectors                 reciprocal lattice vectors
     0.000000000  2.925700000  2.925700000    -0.170899272  0.170899272  0.170899272
     2.925700000  0.000000000  2.925700000     0.170899272 -0.170899272  0.170899272
     2.925700000  2.925700000  0.000000000     0.170899272  0.170899272 -0.170899272

  length of vectors
     4.137564619  4.137564619  4.137564619     0.296006222  0.296006222  0.296006222


 
 k-points in units of 2pi/SCALE and weight: Automatic kpoint scheme                 
   0.01068120  0.01068120  0.01068120       0.004
  -0.01068120  0.03204361  0.03204361       0.012
  -0.03204361  0.05340602  0.05340602       0.012
  -0.05340602  0.07476843  0.07476843       0.012
   0.09613084 -0.07476843 -0.07476843       0.012
   0.07476843 -0.05340602 -0.05340602       0.012
   0.05340602 -0.03204361 -0.03204361       0.012
   0.03204361 -0.01068120 -0.01068120       0.012
   0.01068120  0.01068120  0.05340602       0.012
  -0.01068120  0.03204361  0.07476843       0.023
  -0.03204361  0.05340602  0.09613084       0.023
   0.11749325 -0.09613084 -0.05340602       0.023
   0.09613084 -0.07476843 -0.03204361       0.023
   0.07476843 -0.05340602 -0.01068120       0.023
   0.05340602 -0.03204361  0.01068120       0.023
   0.01068120  0.01068120  0.09613084       0.012
  -0.01068120  0.03204361  0.11749325       0.023
   0.13885566 -0.11749325 -0.03204361       0.023
   0.11749325 -0.09613084 -0.01068120       0.023
   0.09613084 -0.07476843  0.01068120       0.023
   0.07476843 -0.05340602  0.03204361       0.023
   0.01068120  0.01068120  0.13885566       0.012
   0.16021807 -0.13885566 -0.01068120       0.023
   0.13885566 -0.11749325  0.01068120       0.023
   0.11749325 -0.09613084  0.03204361       0.023
   0.09613084 -0.07476843  0.05340602       0.023
   0.01068120  0.01068120 -0.16021807       0.012
  -0.01068120  0.03204361 -0.13885566       0.023
  -0.03204361  0.05340602 -0.11749325       0.023
   0.01068120  0.01068120 -0.11749325       0.012
  -0.01068120  0.03204361 -0.09613084       0.023
   0.01068120  0.01068120 -0.07476843       0.012
   0.03204361  0.03204361  0.03204361       0.004
   0.01068120  0.05340602  0.05340602       0.012
  -0.01068120  0.07476843  0.07476843       0.012
   0.13885566 -0.07476843 -0.07476843       0.012
   0.11749325 -0.05340602 -0.05340602       0.012
   0.09613084 -0.03204361 -0.03204361       0.012
   0.03204361  0.03204361  0.07476843       0.012
   0.01068120  0.05340602  0.09613084       0.023
   0.16021807 -0.09613084 -0.05340602       0.023
   0.13885566 -0.07476843 -0.03204361       0.023
   0.11749325 -0.05340602 -0.01068120       0.023
   0.03204361  0.03204361  0.11749325       0.012
   0.18158048 -0.11749325 -0.03204361       0.023
   0.16021807 -0.09613084 -0.01068120       0.023
   0.13885566 -0.07476843  0.01068120       0.023
   0.03204361  0.03204361 -0.18158048       0.012
   0.01068120  0.05340602 -0.16021807       0.023
   0.03204361  0.03204361 -0.13885566       0.012
   0.05340602  0.05340602  0.05340602       0.004
   0.03204361  0.07476843  0.07476843       0.012
   0.18158048 -0.07476843 -0.07476843       0.012
   0.16021807 -0.05340602 -0.05340602       0.012
   0.05340602  0.05340602  0.09613084       0.012
   0.20294289 -0.09613084 -0.05340602       0.023
   0.18158048 -0.07476843 -0.03204361       0.023
   0.05340602  0.05340602 -0.20294289       0.012
   0.07476843  0.07476843  0.07476843       0.004
   0.22430529 -0.07476843 -0.07476843       0.012
 
 k-points in reciprocal lattice and weights: Automatic kpoint scheme                 
   0.06250000  0.06250000  0.06250000       0.004
   0.18750000  0.06250000  0.06250000       0.012
   0.31250000  0.06250000  0.06250000       0.012
   0.43750000  0.06250000  0.06250000       0.012
  -0.43750000  0.06250000  0.06250000       0.012
  -0.31250000  0.06250000  0.06250000       0.012
  -0.18750000  0.06250000  0.06250000       0.012
  -0.06250000  0.06250000  0.06250000       0.012
   0.18750000  0.18750000  0.06250000       0.012
   0.31250000  0.18750000  0.06250000       0.023
   0.43750000  0.18750000  0.06250000       0.023
  -0.43750000  0.18750000  0.06250000       0.023
  -0.31250000  0.18750000  0.06250000       0.023
  -0.18750000  0.18750000  0.06250000       0.023
  -0.06250000  0.18750000  0.06250000       0.023
   0.31250000  0.31250000  0.06250000       0.012
   0.43750000  0.31250000  0.06250000       0.023
  -0.43750000  0.31250000  0.06250000       0.023
  -0.31250000  0.31250000  0.06250000       0.023
  -0.18750000  0.31250000  0.06250000       0.023
  -0.06250000  0.31250000  0.06250000       0.023
   0.43750000  0.43750000  0.06250000       0.012
  -0.43750000  0.43750000  0.06250000       0.023
  -0.31250000  0.43750000  0.06250000       0.023
  -0.18750000  0.43750000  0.06250000       0.023
  -0.06250000  0.43750000  0.06250000       0.023
  -0.43750000 -0.43750000  0.06250000       0.012
  -0.31250000 -0.43750000  0.06250000       0.023
  -0.18750000 -0.43750000  0.06250000       0.023
  -0.31250000 -0.31250000  0.06250000       0.012
  -0.18750000 -0.31250000  0.06250000       0.023
  -0.18750000 -0.18750000  0.06250000       0.012
   0.18750000  0.18750000  0.18750000       0.004
   0.31250000  0.18750000  0.18750000       0.012
   0.43750000  0.18750000  0.18750000       0.012
  -0.43750000  0.18750000  0.18750000       0.012
  -0.31250000  0.18750000  0.18750000       0.012
  -0.18750000  0.18750000  0.18750000       0.012
   0.31250000  0.31250000  0.18750000       0.012
   0.43750000  0.31250000  0.18750000       0.023
  -0.43750000  0.31250000  0.18750000       0.023
  -0.31250000  0.31250000  0.18750000       0.023
  -0.18750000  0.31250000  0.18750000       0.023
   0.43750000  0.43750000  0.18750000       0.012
  -0.43750000  0.43750000  0.18750000       0.023
  -0.31250000  0.43750000  0.18750000       0.023
  -0.18750000  0.43750000  0.18750000       0.023
  -0.43750000 -0.43750000  0.18750000       0.012
  -0.31250000 -0.43750000  0.18750000       0.023
  -0.31250000 -0.31250000  0.18750000       0.012
   0.31250000  0.31250000  0.31250000       0.004
   0.43750000  0.31250000  0.31250000       0.012
  -0.43750000  0.31250000  0.31250000       0.012
  -0.31250000  0.31250000  0.31250000       0.012
   0.43750000  0.43750000  0.31250000       0.012
  -0.43750000  0.43750000  0.31250000       0.023
  -0.31250000  0.43750000  0.31250000       0.023
  -0.43750000 -0.43750000  0.31250000       0.012
   0.43750000  0.43750000  0.43750000       0.004
  -0.43750000  0.43750000  0.43750000       0.012
 
 position of ions in fractional coordinates (direct lattice) 
   0.00000000  0.00000000  0.00000000
   0.25000000  0.25000000  0.25000000
 
 position of ions in cartesian coordinates  (Angst):
   0.00000000  0.00000000  0.00000000
   1.46285000  1.46285000  1.46285000
 


--------------------------------------------------------------------------------------------------------


 k-point  1 :   0.0625 0.0625 0.0625  plane waves:     737
 k-point  2 :   0.1875 0.0625 0.0625  plane waves:     745
 k-point  3 :   0.3125 0.0625 0.0625  plane waves:     751
 k-point  4 :   0.4375 0.0625 0.0625  plane waves:     748
 k-point  5 :  -0.4375 0.0625 0.0625  plane waves:     747
 k-point  6 :  -0.3125 0.0625 0.0625  plane waves:     755
 k-point  7 :  -0.1875 0.0625 0.0625  plane waves:     751
 k-point  8 :  -0.0625 0.0625 0.0625  plane waves:     742
 k-point  9 :   0.1875 0.1875 0.0625  plane waves:     749
 k-point 10 :   0.3125 0.1875 0.0625  plane waves:     748
 k-point 11 :   0.4375 0.1875 0.0625  plane waves:     747
 k-point 12 :  -0.4375 0.1875 0.0625  plane waves:     745
 k-point 13 :  -0.3125 0.1875 0.0625  plane waves:     748
 k-point 14 :  -0.1875 0.1875 0.0625  plane waves:     748
 k-point 15 :  -0.0625 0.1875 0.0625  plane waves:     749
 k-point 16 :   0.3125 0.3125 0.0625  plane waves:     734
 k-point 17 :   0.4375 0.3125 0.0625  plane waves:     748
 k-point 18 :  -0.4375 0.3125 0.0625  plane waves:     741
 k-point 19 :  -0.3125 0.3125 0.0625  plane waves:     740
 k-point 20 :  -0.1875 0.3125 0.0625  plane waves:     750
 k-point 21 :  -0.0625 0.3125 0.0625  plane waves:     747
 k-point 22 :   0.4375 0.4375 0.0625  plane waves:     747
 k-point 23 :  -0.4375 0.4375 0.0625  plane waves:     743
 k-point 24 :  -0.3125 0.4375 0.0625  plane waves:     737
 k-point 25 :  -0.1875 0.4375 0.0625  plane waves:     742
 k-point 26 :  -0.0625 0.4375 0.0625  plane waves:     745
 k-point 27 :  -0.4375-0.4375 0.0625  plane waves:     744
 k-point 28 :  -0.3125-0.4375 0.0625  plane waves:     744
 k-point 29 :  -0.1875-0.4375 0.0625  plane waves:     742
 k-point 30 :  -0.3125-0.3125 0.0625  plane waves:     744
 k-point 31 :  -0.1875-0.3125 0.0625  plane waves:     742
 k-point 32 :  -0.1875-0.1875 0.0625  plane waves:     743
 k-point 33 :   0.1875 0.1875 0.1875  plane waves:     739
 k-point 34 :   0.3125 0.1875 0.1875  plane waves:     750
 k-point 35 :   0.4375 0.1875 0.1875  plane waves:     744
 k-point 36 :  -0.4375 0.1875 0.1875  plane waves:     747
 k-point 37 :  -0.3125 0.1875 0.1875  plane waves:     744
 k-point 38 :  -0.1875 0.1875 0.1875  plane waves:     748
 k-point 39 :   0.3125 0.3125 0.1875  plane waves:     748
 k-point 40 :   0.4375 0.3125 0.1875  plane waves:     749
 k-point 41 :  -0.4375 0.3125 0.1875  plane waves:     742
 k-point 42 :  -0.3125 0.3125 0.1875  plane waves:     739
 k-point 43 :  -0.1875 0.3125 0.1875  plane waves:     746
 k-point 44 :   0.4375 0.4375 0.1875  plane waves:     749
 k-point 45 :  -0.4375 0.4375 0.1875  plane waves:     745
 k-point 46 :  -0.3125 0.4375 0.1875  plane waves:     740
 k-point 47 :  -0.1875 0.4375 0.1875  plane waves:     741
 k-point 48 :  -0.4375-0.4375 0.1875  plane waves:     741
 k-point 49 :  -0.3125-0.4375 0.1875  plane waves:     739
 k-point 50 :  -0.3125-0.3125 0.1875  plane waves:     745
 k-point 51 :   0.3125 0.3125 0.3125  plane waves:     751
 k-point 52 :   0.4375 0.3125 0.3125  plane waves:     747
 k-point 53 :  -0.4375 0.3125 0.3125  plane waves:     744
 k-point 54 :  -0.3125 0.3125 0.3125  plane waves:     733
 k-point 55 :   0.4375 0.4375 0.3125  plane waves:     750
 k-point 56 :  -0.4375 0.4375 0.3125  plane waves:     742
 k-point 57 :  -0.3125 0.4375 0.3125  plane waves:     735
 k-point 58 :  -0.4375-0.4375 0.3125  plane waves:     741
 k-point 59 :   0.4375 0.4375 0.4375  plane waves:     757
 k-point 60 :  -0.4375 0.4375 0.4375  plane waves:     749

 maximum and minimum number of plane-waves per node :       757      733

 maximum number of plane-waves:       757
 maximum index in each direction: 
   IXMAX=    6   IYMAX=    6   IZMAX=    6
   IXMIN=   -6   IYMIN=   -6   IZMIN=   -6


 serial   3D FFT for wavefunctions
 parallel 3D FFT for charge:
    minimum data exchange during FFTs selected (reduces bandwidth)


 total amount of memory used by VASP MPI-rank0    34729. kBytes
=======================================================================

   base      :      30000. kBytes
   nonl-proj :       2942. kBytes
   fftplans  :        314. kBytes
   grid      :        723. kBytes
   one-center:          6. kBytes
   wavefun   :        744. kBytes
 
     INWAV:  cpu time    0.0000: real time    0.0003
 Broyden mixing: mesh for mixing (old mesh)
   NGX = 13   NGY = 13   NGZ = 13
  (NGX  = 40   NGY  = 40   NGZ  = 40)
  gives a total of   2197 points

 initial charge density was supplied:
 charge density of overlapping atoms calculated
 number of electron       8.0000000 magnetization 
 keeping initial charge density in first step


--------------------------------------------------------------------------------------------------------


 Maximum index for augmentation-charges          685 (set IRDMAX)


--------------------------------------------------------------------------------------------------------


 First call to EWALD:  gamma=   0.481
 Maximum number of real-space cells 3x 3x 3
 Maximum number of reciprocal cells 3x 3x 3

    FEWALD:  cpu time    0.0080: real time    0.0072


--------------------------------------- Iteration      1(   1)  ---------------------------------------


    POTLOK:  cpu time    0.0440: real time    0.0542
    SETDIJ:  cpu time    0.0080: real time    0.0093
     EDDAV:  cpu time    1.0640: real time    1.0668
       DOS:  cpu time    0.0040: real time    0.0042
    --------------------------------------------
      LOOP:  cpu time    1.1200: real time    1.1352

 eigenvalue-minimisations  :   960
 total energy-change (2. order) : 0.3273935E+01  (-0.2487555E+03)
 number of electron       8.0000000 magnetization 
 augmentation part        8.0000000 magnetization 

 Free energy of the ion-electron system (eV)
  ---------------------------------------------------
  alpha Z        PSCENC =         2.68840348
  Ewald energy   TEWEN  =      -212.10307625
  -Hartree energ DENC   =       -14.62006806
  -exchange      EXHF   =         0.00000000
  -V(xc)+E(xc)   XCENC  =       -19.42210497
  PAW double counting   =        65.95520812      -30.76852678
  entropy T*S    EENTRO =        -0.00900917
  eigenvalues    EBANDS =         5.42185478
  atomic energy  EATOM  =       206.13125414
  Solvation  Ediel_sol  =         0.00000000
  ---------------------------------------------------
  free energy    TOTEN  =         3.27393529 eV

  energy without entropy =        3.28294446  energy(sigma->0) =        3.27843987


--------------------------------------------------------------------------------------------------------




--------------------------------------- Iteration      1(   2)  ---------------------------------------


     EDDAV:  cpu time    1.5880: real time    1.5975
       DOS:  cpu time    0.0040: real time    0.0034
    --------------------------------------------
      LOOP:  cpu time    1.5920: real time    1.6007

 eigenvalue-minimisations  :  1512
 total energy-change (2. order) :-0.1360375E+02  (-0.1286832E+02)
 number of electron       8.0000000 magnetization 
 augmentation part        8.0000000 magnetization 

 Free energy of the ion-electron system (eV)
  ---------------------------------------------------
  alpha Z        PSCENC =         2.68840348
  Ewald energy   TEWEN  =      -212.10307625
  -Hartree energ DENC   =       -14.62006806
  -exchange      EXHF   =         0.00000000
  -V(xc)+E(xc)   XCENC  =       -19.42210497
  PAW double counting   =        65.95520812      -30.76852678
  entropy T*S    EENTRO =        -0.00000565
  eigenvalues    EBANDS =        -8.19090309
  atomic energy  EATOM  =       206.13125414
  Solvation  Ediel_sol  =         0.00000000
  ---------------------------------------------------
  free energy    TOTEN  =       -10.32981906 eV

  energy without entropy =      -10.32981341  energy(sigma->0) =      -10.32981624


--------------------------------------------------------------------------------------------------------




--------------------------------------- Iteration      1(   3)  ---------------------------------------


     EDDAV:  cpu time    1.3160: real time    1.3199
       DOS:  cpu time    0.0040: real time    0.0035
    --------------------------------------------
      LOOP:  cpu time    1.3200: real time    1.3234

 eigenvalue-minimisations  :  1216
 total energy-change (2. order) :-0.2004459E+00  (-0.2004459E+00)
 number of electron       8.0000000 magnetization 
 augmentation part        8.0000000 magnetization 

 Free energy of the ion-electron system (eV)
  ---------------------------------------------------
  alpha Z        PSCENC =         2.68840348
  Ewald energy   TEWEN  =      -212.10307625
  -Hartree energ DENC   =       -14.62006806
  -exchange      EXHF   =         0.00000000
  -V(xc)+E(xc)   XCENC  =       -19.42210497
  PAW double counting   =        65.95520812      -30.76852678
  entropy T*S    EENTRO =        -0.00000418
  eigenvalues    EBANDS =        -8.39135050
  atomic energy  EATOM  =       206.13125414
  Solvation  Ediel_sol  =         0.00000000
  ---------------------------------------------------
  free energy    TOTEN  =       -10.53026500 eV

  energy without entropy =      -10.53026082  energy(sigma->0) =      -10.53026291


--------------------------------------------------------------------------------------------------------




--------------------------------------- Iteration      1(   4)  ---------------------------------------


     EDDAV:  cpu time    1.6200: real time    1.6253
       DOS:  cpu time    0.0000: real time    0.0034
    --------------------------------------------
      LOOP:  cpu time    1.6240: real time    1.6287

 eigenvalue-minimisations  :  1536
 total energy-change (2. order) :-0.9776236E-03  (-0.9776234E-03)
 number of electron       8.0000000 magnetization 
 augmentation part        8.0000000 magnetization 

 Free energy of the ion-electron system (eV)
  ---------------------------------------------------
  alpha Z        PSCENC =         2.68840348
  Ewald energy   TEWEN  =      -212.10307625
  -Hartree energ DENC   =       -14.62006806
  -exchange      EXHF   =         0.00000000
  -V(xc)+E(xc)   XCENC  =       -19.42210497
  PAW double counting   =        65.95520812      -30.76852678
  entropy T*S    EENTRO =        -0.00000415
  eigenvalues    EBANDS =        -8.39232815
  atomic energy  EATOM  =       206.13125414
  Solvation  Ediel_sol  =         0.00000000
  ---------------------------------------------------
  free energy    TOTEN  =       -10.53124262 eV

  energy without entropy =      -10.53123847  energy(sigma->0) =      -10.53124054


--------------------------------------------------------------------------------------------------------




--------------------------------------- Iteration      1(   5)  ---------------------------------------


     EDDAV:  cpu time    1.3760: real time    1.3761
       DOS:  cpu time    0.0000: real time    0.0034
    CHARGE:  cpu time    0.1080: real time    0.1056
    MIXING:  cpu time    0.0000: real time    0.0026
    --------------------------------------------
      LOOP:  cpu time    1.4800: real time    1.4878

 eigenvalue-minimisations  :  1280
 total energy-change (2. order) :-0.1187163E-05  (-0.1187422E-05)
 number of electron       8.0000006 magnetization 
 augmentation part       -0.4664931 magnetization 

 Broyden mixing:
  rms(total) = 0.24837E+00    rms(broyden)= 0.24837E+00
  rms(prec ) = 0.67707E+00
  weight for this iteration     100.00

 Free energy of the ion-electron system (eV)
  ---------------------------------------------------
  alpha Z        PSCENC =         2.68840348
  Ewald energy   TEWEN  =      -212.10307625
  -Hartree energ DENC   =       -14.62006806
  -exchange      EXHF   =         0.00000000
  -V(xc)+E(xc)   XCENC  =       -19.42210497
  PAW double counting   =        65.95520812      -30.76852678
  entropy T*S    EENTRO =        -0.00000415
  eigenvalues    EBANDS =        -8.39232933
  atomic energy  EATOM  =       206.13125414
  Solvation  Ediel_sol  =         0.00000000
  ---------------------------------------------------
  free energy    TOTEN  =       -10.53124381 eV

  energy without entropy =      -10.53123965  energy(sigma->0) =      -10.53124173


--------------------------------------------------------------------------------------------------------




--------------------------------------- Iteration      1(   6)  ---------------------------------------


    POTLOK:  cpu time    0.0360: real time    0.0380
    SETDIJ:  cpu time    0.0080: real time    0.0087
     EDDAV:  cpu time    1.1840: real time    1.1851
       DOS:  cpu time    0.0040: real time    0.0033
    CHARGE:  cpu time    0.1040: real time    0.1045
    MIXING:  cpu time    0.0000: real time    0.0024
    --------------------------------------------
      LOOP:  cpu time    1.3400: real time    1.3420

 eigenvalue-minimisations  :  1096
 total energy-change (2. order) : 0.5124635E-01  (-0.2717049E-02)
 number of electron       8.0000006 magnetization 
 augmentation part       -0.4636288 magnetization 

 Broyden mixing:
  rms(total) = 0.15194E+00    rms(broyden)= 0.15194E+00
  rms(prec ) = 0.41486E+00
  weight for this iteration     100.00

 eigenvalues of (default mixing * dielectric matrix)
  average eigenvalue GAMMA=   2.5590
  2.5590

 Free energy of the ion-electron system (eV)
  ---------------------------------------------------
  alpha Z        PSCENC =         2.68840348
  Ewald energy   TEWEN  =      -212.10307625
  -Hartree energ DENC   =       -15.71731644
  -exchange      EXHF   =         0.00000000
  -V(xc)+E(xc)   XCENC  =       -19.25338957
  PAW double counting   =        67.47279208      -32.32460024
  entropy T*S    EENTRO =        -0.00000638
  eigenvalues    EBANDS =        -7.37405828
  atomic energy  EATOM  =       206.13125414
  Solvation  Ediel_sol  =         0.00000000
  ---------------------------------------------------
  free energy    TOTEN  =       -10.47999746 eV

  energy without entropy =      -10.47999107  energy(sigma->0) =      -10.47999426


--------------------------------------------------------------------------------------------------------




--------------------------------------- Iteration      1(   7)  ---------------------------------------


    POTLOK:  cpu time    0.0360: real time    0.0397
    SETDIJ:  cpu time    0.0080: real time    0.0087
     EDDAV:  cpu time    1.2720: real time    1.2703
       DOS:  cpu time    0.0000: real time    0.0036
    CHARGE:  cpu time    0.1040: real time    0.1037
    MIXING:  cpu time    0.0040: real time    0.0022
    --------------------------------------------
      LOOP:  cpu time    1.4200: real time    1.4281

 eigenvalue-minimisations  :  1192
 total energy-change (2. order) : 0.2902342E-01  (-0.6540234E-02)
 number of electron       8.0000005 magnetization 
 augmentation part       -0.4604017 magnetization 

 Broyden mixing:
  rms(total) = 0.10879E-01    rms(broyden)= 0.10879E-01
  rms(prec ) = 0.27138E-01
  weight for this iteration     100.00

 eigenvalues of (default mixing * dielectric matrix)
  average eigenvalue GAMMA=   2.5240
  2.5240  2.5240

 Free energy of the ion-electron system (eV)
  ---------------------------------------------------
  alpha Z        PSCENC =         2.68840348
  Ewald energy   TEWEN  =      -212.10307625
  -Hartree energ DENC   =       -17.68513666
  -exchange      EXHF   =         0.00000000
  -V(xc)+E(xc)   XCENC  =       -18.94429846
  PAW double counting   =        69.33102202      -34.22850489
  entropy T*S    EENTRO =        -0.00001243
  eigenvalues    EBANDS =        -5.64062498
  atomic energy  EATOM  =       206.13125414
  Solvation  Ediel_sol  =         0.00000000
  ---------------------------------------------------
  free energy    TOTEN  =       -10.45097404 eV

  energy without entropy =      -10.45096161  energy(sigma->0) =      -10.45096782


--------------------------------------------------------------------------------------------------------




--------------------------------------- Iteration      1(   8)  ---------------------------------------


    POTLOK:  cpu time    0.0320: real time    0.0393
    SETDIJ:  cpu time    0.0080: real time    0.0087
     EDDAV:  cpu time    1.1320: real time    1.1321
       DOS:  cpu time    0.0040: real time    0.0035
    CHARGE:  cpu time    0.1040: real time    0.1034
    MIXING:  cpu time    0.0000: real time    0.0023
    --------------------------------------------
      LOOP:  cpu time    1.2840: real time    1.2895

 eigenvalue-minimisations  :  1040
 total energy-change (2. order) :-0.1366820E-02  (-0.2538762E-03)
 number of electron       8.0000005 magnetization 
 augmentation part       -0.4610187 magnetization 

 Broyden mixing:
  rms(total) = 0.26348E-02    rms(broyden)= 0.26348E-02
  rms(prec ) = 0.88329E-02
  weight for this iteration     100.00

 eigenvalues of (default mixing * dielectric matrix)
  average eigenvalue GAMMA=   2.1711
  1.2056  2.9171  2.3907

 Free energy of the ion-electron system (eV)
  ---------------------------------------------------
  alpha Z        PSCENC =         2.68840348
  Ewald energy   TEWEN  =      -212.10307625
  -Hartree energ DENC   =       -17.65256578
  -exchange      EXHF   =         0.00000000
  -V(xc)+E(xc)   XCENC  =       -18.94706588
  PAW double counting   =        68.67059619      -33.54960272
  entropy T*S    EENTRO =        -0.00001123
  eigenvalues    EBANDS =        -5.69027281
  atomic energy  EATOM  =       206.13125414
  Solvation  Ediel_sol  =         0.00000000
  ---------------------------------------------------
  free energy    TOTEN  =       -10.45234086 eV

  energy without entropy =      -10.45232963  energy(sigma->0) =      -10.45233524


--------------------------------------------------------------------------------------------------------




--------------------------------------- Iteration      1(   9)  ---------------------------------------


    POTLOK:  cpu time    0.0360: real time    0.0406
    SETDIJ:  cpu time    0.0080: real time    0.0087
     EDDAV:  cpu time    0.9280: real time    0.9294
       DOS:  cpu time    0.0040: real time    0.0035
    --------------------------------------------
      LOOP:  cpu time    0.9720: real time    0.9822

 eigenvalue-minimisations  :   792
 total energy-change (2. order) :-0.1618329E-03  (-0.1819161E-04)
 number of electron       8.0000005 magnetization 
 augmentation part       -0.4610187 magnetization 

 Free energy of the ion-electron system (eV)
  ---------------------------------------------------
  alpha Z        PSCENC =         2.68840348
  Ewald energy   TEWEN  =      -212.10307625
  -Hartree energ DENC   =       -17.70133345
  -exchange      EXHF   =         0.00000000
  -V(xc)+E(xc)   XCENC  =       -18.94002303
  PAW double counting   =        68.59741062      -33.47478624
  entropy T*S    EENTRO =        -0.00001107
  eigenvalues    EBANDS =        -5.65034089
  atomic energy  EATOM  =       206.13125414
  Solvation  Ediel_sol  =         0.00000000
  ---------------------------------------------------
  free energy    TOTEN  =       -10.45250269 eV

  energy without entropy =      -10.45249162  energy(sigma->0) =      -10.45249716


--------------------------------------------------------------------------------------------------------




 average (electrostatic) potential at core
  the test charge radii are     0.9892
  (the norm of the test charge is              1.0000)
       1 -85.5813       2 -85.5813
 
 
 
 E-fermi :   4.1668     XC(G=0):  -8.5585     alpha+bet : -9.5773


 k-point     1 :       0.0625    0.0625    0.0625
  band No.  band energies     occupation 
      1      -6.7435      2.00000
      2       3.1320      2.00000
      3       3.7142      1.99863
      4       3.7142      1.99863
      5       5.1915      0.00000
      6       6.3228      0.00000
      7       6.3228      0.00000
      8       6.3938      0.00000

 k-point     2 :       0.1875    0.0625    0.0625
  band No.  band energies     occupation 
      1      -6.5217      2.00000
      2       1.6944      2.00000
      3       3.0700      2.00000
      4       3.6024      1.99993
      5       5.5770      0.00000
      6       6.5365      0.00000
      7       6.6889      0.00000
      8       7.5916      0.00000

 k-point     3 :       0.3125    0.0625    0.0625
  band No.  band energies     occupation 
      1      -5.9918      2.00000
      2      -0.1788      2.00000
      3       2.6276      2.00000
      4       3.2151      2.00000
      5       5.2526      0.00000
      6       7.0190      0.00000
      7       7.2517      0.00000
      8       9.2210      0.00000

 k-point     4 :       0.4375    0.0625    0.0625
  band No.  band energies     occupation 
      1      -5.2765      2.00000
      2      -1.7241      2.00000
      3       2.4164      2.00000
      4       2.8747      2.00000
      5       4.9791      0.00000
      6       7.2010      0.00000
      7       7.2225      0.00000
      8      10.7823      0.00000

 k-point     5 :      -0.4375    0.0625    0.0625
  band No.  band energies     occupation 
      1      -4.9447      2.00000
      2      -2.2684      2.00000
      3       2.4388      2.00000
      4       2.6999      2.00000
      5       4.9139      0.00000
      6       7.0797      0.00000
      7       7.2970      0.00000
      8      11.1256      0.00000

 k-point     6 :      -0.3125    0.0625    0.0625
  band No.  band energies     occupation 
      1      -5.5165      2.00000
      2      -1.2743      2.00000
      3       2.6757      2.00000
      4       2.7324      2.00000
      5       5.0748      0.00000
      6       7.0046      0.00000
      7       7.4432      0.00000
      8      10.0629      0.00000

 k-point     7 :      -0.1875    0.0625    0.0625
  band No.  band energies     occupation 
      1      -6.1984      2.00000
      2       0.4314      2.00000
      3       2.9786      2.00000
      4       3.0754      2.00000
      5       5.4190      0.00000
      6       6.6905      0.00000
      7       7.3479      0.00000
      8       8.6119      0.00000

 k-point     8 :      -0.0625    0.0625    0.0625
  band No.  band energies     occupation 
      1      -6.6318      2.00000
      2       2.3472      2.00000
      3       3.3831      2.00000
      4       3.4649      2.00000
      5       5.7093      0.00000
      6       6.1182      0.00000
      7       6.7844      0.00000
      8       6.9779      0.00000

 k-point     9 :       0.1875    0.1875    0.0625
  band No.  band energies     occupation 
      1      -6.4098      2.00000
      2       1.4535      2.00000
      3       2.9330      2.00000
      4       2.9540      2.00000
      5       5.7359      0.00000
      6       6.4533      0.00000
      7       7.4917      0.00000
      8       7.6889      0.00000

 k-point    10 :       0.3125    0.1875    0.0625
  band No.  band energies     occupation 
      1      -5.9780      2.00000
      2       0.1592      2.00000
      3       2.1317      2.00000
      4       2.7401      2.00000
      5       5.8571      0.00000
      6       6.6773      0.00000
      7       8.1215      0.00000
      8       8.2094      0.00000

 k-point    11 :       0.4375    0.1875    0.0625
  band No.  band energies     occupation 
      1      -5.2965      2.00000
      2      -1.3321      2.00000
      3       1.6489      2.00000
      4       2.4236      2.00000
      5       5.8554      0.00000
      6       7.0682      0.00000
      7       8.2604      0.00000
      8       8.7433      0.00000

 k-point    12 :      -0.4375    0.1875    0.0625
  band No.  band energies     occupation 
      1      -4.7186      2.00000
      2      -2.2695      2.00000
      3       1.3849      2.00000
      4       2.3538      2.00000
      5       5.7928      0.00000
      6       7.0883      0.00000
      7       8.1871      0.00000
      8      10.3126      0.00000

 k-point    13 :      -0.3125    0.1875    0.0625
  band No.  band energies     occupation 
      1      -5.0610      2.00000
      2      -1.7407      2.00000
      3       1.3577      2.00000
      4       2.5745      2.00000
      5       5.9086      0.00000
      6       7.1012      0.00000
      7       8.0974      0.00000
      8       9.6877      0.00000

 k-point    14 :      -0.1875    0.1875    0.0625
  band No.  band energies     occupation 
      1      -5.7771      2.00000
      2      -0.3643      2.00000
      3       1.6822      2.00000
      4       2.9753      2.00000
      5       6.1519      0.00000
      6       6.7944      0.00000
      7       7.9436      0.00000
      8       8.4993      0.00000

 k-point    15 :      -0.0625    0.1875    0.0625
  band No.  band energies     occupation 
      1      -6.3028      2.00000
      2       0.9368      2.00000
      3       2.5997      2.00000
      4       3.2723      2.00000
      5       5.9228      0.00000
      6       6.3581      0.00000
      7       7.3441      0.00000
      8       8.1552      0.00000

 k-point    16 :       0.3125    0.3125    0.0625
  band No.  band energies     occupation 
      1      -5.6452      2.00000
      2      -0.3833      2.00000
      3       2.0154      2.00000
      4       2.1132      2.00000
      5       5.0896      0.00000
      6       6.4798      0.00000
      7       9.0074      0.00000
      8       9.1895      0.00000

 k-point    17 :       0.4375    0.3125    0.0625
  band No.  band energies     occupation 
      1      -5.0306      2.00000
      2      -1.4260      2.00000
      3       1.3899      2.00000
      4       1.8367      2.00000
      5       5.3641      0.00000
      6       6.3988      0.00000
      7       8.9846      0.00000
      8      10.0163      0.00000

 k-point    18 :      -0.4375    0.3125    0.0625
  band No.  band energies     occupation 
      1      -4.3259      2.00000
      2      -2.3783      2.00000
      3       0.7167      2.00000
      4       1.8084      2.00000
      5       5.5672      0.00000
      6       7.7951      0.00000
      7       8.6524      0.00000
      8       9.9489      0.00000

 k-point    19 :      -0.3125    0.3125    0.0625
  band No.  band energies     occupation 
      1      -4.3939      2.00000
      2      -2.2923      2.00000
      3       0.4523      2.00000
      4       2.0810      2.00000
      5       5.8415      0.00000
      6       8.3572      0.00000
      7       9.2796      0.00000
      8       9.7941      0.00000

 k-point    20 :      -0.1875    0.3125    0.0625
  band No.  band energies     occupation 
      1      -5.1038      2.00000
      2      -1.4538      2.00000
      3       0.9099      2.00000
      4       2.5436      2.00000
      5       6.1617      0.00000
      6       7.4412      0.00000
      7       8.5233      0.00000
      8       8.9601      0.00000

 k-point    21 :      -0.0625    0.3125    0.0625
  band No.  band energies     occupation 
      1      -5.6882      2.00000
      2      -0.7734      2.00000
      3       2.1610      2.00000
      4       2.8889      2.00000
      5       5.5983      0.00000
      6       6.9190      0.00000
      7       7.6791      0.00000
      8       9.1602      0.00000

 k-point    22 :       0.4375    0.4375    0.0625
  band No.  band energies     occupation 
      1      -4.4869      2.00000
      2      -2.1656      2.00000
      3       1.4573      2.00000
      4       1.6149      2.00000
      5       4.8071      0.00001
      6       5.4668      0.00000
      7      10.8831      0.00000
      8      10.9980      0.00000

 k-point    23 :      -0.4375    0.4375    0.0625
  band No.  band energies     occupation 
      1      -3.7491      2.00000
      2      -2.9930      2.00000
      3       1.0387      2.00000
      4       1.4349      2.00000
      5       5.1867      0.00000
      6       5.7923      0.00000
      7      10.7469      0.00000
      8      11.4039      0.00000

 k-point    24 :      -0.3125    0.4375    0.0625
  band No.  band energies     occupation 
      1      -3.8715      2.00000
      2      -2.8251      2.00000
      3       0.4840      2.00000
      4       1.6900      2.00000
      5       5.4635      0.00000
      6       7.6834      0.00000
      7       9.5008      0.00000
      8      10.3177      0.00000

 k-point    25 :      -0.1875    0.4375    0.0625
  band No.  band energies     occupation 
      1      -4.5043      2.00000
      2      -2.3238      2.00000
      3       0.8152      2.00000
      4       2.1718      2.00000
      5       5.8757      0.00000
      6       7.6150      0.00000
      7       8.8812      0.00000
      8      10.0847      0.00000

 k-point    26 :      -0.0625    0.4375    0.0625
  band No.  band energies     occupation 
      1      -4.9955      2.00000
      2      -2.0669      2.00000
      3       1.9732      2.00000
      4       2.6255      2.00000
      5       5.3879      0.00000
      6       7.0238      0.00000
      7       7.6055      0.00000
      8      10.6131      0.00000

 k-point    27 :      -0.4375   -0.4375    0.0625
  band No.  band energies     occupation 
      1      -3.7801      2.00000
      2      -3.0003      2.00000
      3       1.3438      2.00000
      4       1.5128      2.00000
      5       4.8372      0.00000
      6       5.1457      0.00000
      7      11.7241      0.00000
      8      11.7519      0.00000

 k-point    28 :      -0.3125   -0.4375    0.0625
  band No.  band energies     occupation 
      1      -4.4244      2.00000
      2      -2.2211      2.00000
      3       1.1583      2.00000
      4       1.5684      2.00000
      5       5.2356      0.00000
      6       6.0158      0.00000
      7       9.8499      0.00000
      8      10.9301      0.00000

 k-point    29 :      -0.1875   -0.4375    0.0625
  band No.  band energies     occupation 
      1      -4.8323      2.00000
      2      -1.8632      2.00000
      3       1.1353      2.00000
      4       2.0505      2.00000
      5       5.7416      0.00000
      6       7.6502      0.00000
      7       8.2435      0.00000
      8       9.1561      0.00000

 k-point    30 :      -0.3125   -0.3125    0.0625
  band No.  band energies     occupation 
      1      -5.1119      2.00000
      2      -1.2883      2.00000
      3       1.6825      2.00000
      4       1.8170      2.00000
      5       4.8900      0.00000
      6       5.9409      0.00000
      7       9.9266      0.00000
      8      10.0958      0.00000

 k-point    31 :      -0.1875   -0.3125    0.0625
  band No.  band energies     occupation 
      1      -5.5517      2.00000
      2      -0.6293      2.00000
      3       1.7200      2.00000
      4       2.2359      2.00000
      5       5.5804      0.00000
      6       6.7849      0.00000
      7       8.2848      0.00000
      8       9.0815      0.00000

 k-point    32 :      -0.1875   -0.1875    0.0625
  band No.  band energies     occupation 
      1      -6.0796      2.00000
      2       0.5354      2.00000
      3       2.4467      2.00000
      4       2.4926      2.00000
      5       5.3851      0.00000
      6       6.8064      0.00000
      7       8.2558      0.00000
      8       8.3121      0.00000

 k-point    33 :       0.1875    0.1875    0.1875
  band No.  band energies     occupation 
      1      -6.4134      2.00000
      2       1.1126      2.00000
      3       3.3513      2.00000
      4       3.3513      2.00000
      5       5.2000      0.00000
      6       6.8483      0.00000
      7       6.8483      0.00000
      8       8.0390      0.00000

 k-point    34 :       0.3125    0.1875    0.1875
  band No.  band energies     occupation 
      1      -6.0907      2.00000
      2       0.2933      2.00000
      3       2.1339      2.00000
      4       3.3412      2.00000
      5       5.8536      0.00000
      6       6.9693      0.00000
      7       7.1636      0.00000
      8       8.5925      0.00000

 k-point    35 :       0.4375    0.1875    0.1875
  band No.  band energies     occupation 
      1      -5.4827      2.00000
      2      -0.9146      2.00000
      3       1.2543      2.00000
      4       2.9323      2.00000
      5       5.9874      0.00000
      6       7.6262      0.00000
      7       7.7449      0.00000
      8       8.9283      0.00000

 k-point    36 :      -0.4375    0.1875    0.1875
  band No.  band energies     occupation 
      1      -4.7833      2.00000
      2      -2.0826      2.00000
      3       1.0596      2.00000
      4       2.5049      2.00000
      5       5.7343      0.00000
      6       7.6589      0.00000
      7       8.0784      0.00000
      8      10.5506      0.00000

 k-point    37 :      -0.3125    0.1875    0.1875
  band No.  band energies     occupation 
      1      -4.7682      2.00000
      2      -2.1077      2.00000
      3       1.2819      2.00000
      4       2.2537      2.00000
      5       5.6079      0.00000
      6       7.5830      0.00000
      7       8.3896      0.00000
      8       9.2125      0.00000

 k-point    38 :      -0.1875    0.1875    0.1875
  band No.  band energies     occupation 
      1      -5.4646      2.00000
      2      -0.9199      2.00000
      3       1.8022      2.00000
      4       2.2467      2.00000
      5       5.6167      0.00000
      6       7.1611      0.00000
      7       8.2280      0.00000
      8       8.6071      0.00000

 k-point    39 :       0.3125    0.3125    0.1875
  band No.  band energies     occupation 
      1      -5.8801      2.00000
      2      -0.2482      2.00000
      3       2.4461      2.00000
      4       2.5917      2.00000
      5       5.7514      0.00000
      6       6.7396      0.00000
      7       7.9452      0.00000
      8       8.4854      0.00000

 k-point    40 :       0.4375    0.3125    0.1875
  band No.  band energies     occupation 
      1      -5.3684      2.00000
      2      -1.0178      2.00000
      3       1.3016      2.00000
      4       2.4207      2.00000
      5       6.3266      0.00000
      6       6.8930      0.00000
      7       7.9867      0.00000
      8       8.9575      0.00000

 k-point    41 :      -0.4375    0.3125    0.1875
  band No.  band energies     occupation 
      1      -4.6550      2.00000
      2      -1.9772      2.00000
      3       0.6811      2.00000
      4       1.9865      2.00000
      5       6.6288      0.00000
      6       7.2513      0.00000
      7       8.3081      0.00000
      8       9.8712      0.00000

 k-point    42 :      -0.3125    0.3125    0.1875
  band No.  band energies     occupation 
      1      -4.2799      2.00000
      2      -2.4521      2.00000
      3       0.6553      2.00000
      4       1.7465      2.00000
      5       6.3470      0.00000
      6       7.4791      0.00000
      7       8.9508      0.00000
      8       9.8453      0.00000

 k-point    43 :      -0.1875    0.3125    0.1875
  band No.  band energies     occupation 
      1      -4.8741      2.00000
      2      -1.6722      2.00000
      3       1.0176      2.00000
      4       1.8827      2.00000
      5       6.1618      0.00000
      6       7.1275      0.00000
      7       7.9353      0.00000
      8       9.9514      0.00000

 k-point    44 :       0.4375    0.4375    0.1875
  band No.  band energies     occupation 
      1      -4.9610      2.00000
      2      -1.5966      2.00000
      3       1.2632      2.00000
      4       1.9721      2.00000
      5       5.3675      0.00000
      6       7.0629      0.00000
      7       8.7722      0.00000
      8       9.3255      0.00000

 k-point    45 :      -0.4375    0.4375    0.1875
  band No.  band energies     occupation 
      1      -4.3086      2.00000
      2      -2.3334      2.00000
      3       0.8411      2.00000
      4       1.4651      2.00000
      5       6.0230      0.00000
      6       6.9017      0.00000
      7       8.6067      0.00000
      8      10.7993      0.00000

 k-point    46 :      -0.3125    0.4375    0.1875
  band No.  band energies     occupation 
      1      -3.6669      2.00000
      2      -2.9809      2.00000
      3       0.6156      2.00000
      4       1.0812      2.00000
      5       6.9813      0.00000
      6       7.8565      0.00000
      7       8.1881      0.00000
      8       9.1049      0.00000

 k-point    47 :      -0.1875    0.4375    0.1875
  band No.  band energies     occupation 
      1      -4.1586      2.00000
      2      -2.4919      2.00000
      3       0.5865      2.00000
      4       1.4535      2.00000
      5       7.0169      0.00000
      6       7.3927      0.00000
      7       8.0293      0.00000
      8      10.0597      0.00000

 k-point    48 :      -0.4375   -0.4375    0.1875
  band No.  band energies     occupation 
      1      -3.7867      2.00000
      2      -2.9372      2.00000
      3       0.6915      2.00000
      4       1.6864      2.00000
      5       5.0577      0.00000
      6       6.6423      0.00000
      7      10.6741      0.00000
      8      10.7452      0.00000

 k-point    49 :      -0.3125   -0.4375    0.1875
  band No.  band energies     occupation 
      1      -3.7024      2.00000
      2      -2.9848      2.00000
      3       0.7659      2.00000
      4       1.2315      2.00000
      5       5.9533      0.00000
      6       6.7359      0.00000
      7       9.4658      0.00000
      8      10.3801      0.00000

 k-point    50 :      -0.3125   -0.3125    0.1875
  band No.  band energies     occupation 
      1      -4.3855      2.00000
      2      -2.2828      2.00000
      3       0.8845      2.00000
      4       1.7828      2.00000
      5       5.1664      0.00000
      6       6.7950      0.00000
      7       9.7005      0.00000
      8      10.0808      0.00000

 k-point    51 :       0.3125    0.3125    0.3125
  band No.  band energies     occupation 
      1      -5.7976      2.00000
      2      -0.7452      2.00000
      3       2.9957      2.00000
      4       2.9957      2.00000
      5       4.8179      0.00000
      6       7.1659      0.00000
      7       7.1659      0.00000
      8      10.0473      0.00000

 k-point    52 :       0.4375    0.3125    0.3125
  band No.  band energies     occupation 
      1      -5.4102      2.00000
      2      -1.2845      2.00000
      3       1.7600      2.00000
      4       2.9160      2.00000
      5       5.6014      0.00000
      6       7.3649      0.00000
      7       7.4054      0.00000
      8       9.8435      0.00000

 k-point    53 :      -0.4375    0.3125    0.3125
  band No.  band energies     occupation 
      1      -4.7718      2.00000
      2      -1.8857      2.00000
      3       0.6135      2.00000
      4       2.4558      2.00000
      5       5.7800      0.00000
      6       8.5016      0.00000
      7       8.5035      0.00000
      8       9.5478      0.00000

 k-point    54 :      -0.3125    0.3125    0.3125
  band No.  band energies     occupation 
      1      -4.1203      2.00000
      2      -2.5827      2.00000
      3       0.3775      2.00000
      4       2.0151      2.00000
      5       5.3957      0.00000
      6       8.7591      0.00000
      7       9.5324      0.00000
      8       9.5682      0.00000

 k-point    55 :       0.4375    0.4375    0.3125
  band No.  band energies     occupation 
      1      -5.1638      2.00000
      2      -1.7314      2.00000
      3       1.9862      2.00000
      4       2.4733      2.00000
      5       5.5287      0.00000
      6       7.0331      0.00000
      7       7.8558      0.00000
      8       9.5984      0.00000

 k-point    56 :      -0.4375    0.4375    0.3125
  band No.  band energies     occupation 
      1      -4.6675      2.00000
      2      -2.1311      2.00000
      3       0.9804      2.00000
      4       2.1145      2.00000
      5       6.2931      0.00000
      6       7.0168      0.00000
      7       8.8466      0.00000
      8       9.4564      0.00000

 k-point    57 :      -0.3125    0.4375    0.3125
  band No.  band energies     occupation 
      1      -4.0025      2.00000
      2      -2.6677      2.00000
      3       0.4531      2.00000
      4       1.5567      2.00000
      5       6.2874      0.00000
      6       8.2418      0.00000
      7       8.8563      0.00000
      8       9.2093      0.00000

 k-point    58 :      -0.4375   -0.4375    0.3125
  band No.  band energies     occupation 
      1      -4.3847      2.00000
      2      -2.4001      2.00000
      3       0.7076      2.00000
      4       2.0966      2.00000
      5       5.4879      0.00000
      6       8.4357      0.00000
      7       8.9854      0.00000
      8       9.0077      0.00000

 k-point    59 :       0.4375    0.4375    0.4375
  band No.  band energies     occupation 
      1      -5.1074      2.00000
      2      -2.0773      2.00000
      3       2.8006      2.00000
      4       2.8006      2.00000
      5       4.5877      0.00292
      6       7.1512      0.00000
      7       7.1512      0.00000
      8      11.1082      0.00000

 k-point    60 :      -0.4375    0.4375    0.4375
  band No.  band energies     occupation 
      1      -4.8325      2.00000
      2      -2.2592      2.00000
      3       1.7364      2.00000
      4       2.5929      2.00000
      5       5.4613      0.00000
      6       7.1593      0.00000
      7       7.6243      0.00000
      8      11.0743      0.00000


--------------------------------------------------------------------------------------------------------


 soft charge-density along one line, spin component           1
         0         1         2         3         4         5         6         7         8         9
 total charge-density along one line
 
 pseudopotential strength for first ion, spin component:           1
 18.653   0.001  -0.000  -0.000  -0.000   0.000   0.000   0.000
  0.001   0.006   0.000   0.000   0.000  -0.000  -0.000  -0.000
 -0.000   0.000   4.203  -0.000  -0.000  -0.003   0.000   0.000
 -0.000   0.000  -0.000   4.203  -0.000   0.000  -0.003   0.000
 -0.000   0.000  -0.000  -0.000   4.203   0.000   0.000  -0.003
  0.000  -0.000  -0.003   0.000   0.000   0.005  -0.000  -0.000
  0.000  -0.000   0.000  -0.003   0.000  -0.000   0.005  -0.000
  0.000  -0.000   0.000   0.000  -0.003  -0.000  -0.000   0.005
 total augmentation occupancy for first ion, spin component:           1
  1.556  -0.486  -0.000  -0.000   0.000   0.000   0.000   0.000
 -0.486   0.448   0.000   0.000   0.000   0.000   0.000   0.000
 -0.000   0.000   0.891  -0.000   0.000  -0.409   0.000  -0.000
 -0.000   0.000  -0.000   0.891   0.000   0.000  -0.409  -0.000
  0.000  -0.000   0.000   0.000   0.891  -0.000  -0.000  -0.409
  0.000   0.000  -0.409   0.000  -0.000   0.224  -0.000   0.000
  0.000   0.000   0.000  -0.409  -0.000  -0.000   0.224   0.000
  0.000   0.000  -0.000  -0.000  -0.409   0.000   0.000   0.224


------------------------ aborting loop because EDIFF is reached ----------------------------------------


    CHARGE:  cpu time    0.1040: real time    0.1056
    FORLOC:  cpu time    0.0000: real time    0.0012
    FORNL :  cpu time    0.0280: real time    0.0276
    STRESS:  cpu time    0.3320: real time    0.3314
    FORCOR:  cpu time    0.0280: real time    0.0273
    FORHAR:  cpu time    0.0080: real time    0.0067
    MIXING:  cpu time    0.0000: real time    0.0018
    OFIELD:  cpu time    0.0000: real time    0.0005

  FORCE on cell =-STRESS in cart. coord.  units (eV):
  Direction    XX          YY          ZZ          XY          YZ          ZX
  --------------------------------------------------------------------------------------
  Alpha Z     2.68840     2.68840     2.68840
  Ewald     -70.70106   -70.70106   -70.70106    -0.00000     0.00000     0.00000
  Hartree     5.90481     5.90481     5.90481     0.00000     0.00000     0.00000
  E(xc)     -24.19564   -24.19564   -24.19564    -0.00000    -0.00000    -0.00000
  Local     -32.66731   -32.66731   -32.66731     0.00003     0.00003     0.00003
  n-local    74.85030    77.40886    72.76187     0.85940    -0.95688     0.04022
  augment   -11.77288   -11.77288   -11.77288    -0.00003    -0.00003    -0.00003
  Kinetic    53.15096    53.19896    50.15385     0.98682    -1.09975     0.05244
  Fock        0.00000     0.00000     0.00000     0.00000     0.00000     0.00000
  -------------------------------------------------------------------------------------
  Total      -3.56874    -3.56874    -3.56874    -0.00000    -0.00000     0.00000
  in kB    -114.15804  -114.15804  -114.15804    -0.00000    -0.00000     0.00000
  external pressure =     -114.16 kB  Pullay stress =        0.00 kB


 VOLUME and BASIS-vectors are now :
 -----------------------------------------------------------------------------
  energy-cutoff  :      350.00
  volume of cell :       50.09
      direct lattice vectors                 reciprocal lattice vectors
     0.000000000  2.925700000  2.925700000    -0.170899272  0.170899272  0.170899272
     2.925700000  0.000000000  2.925700000     0.170899272 -0.170899272  0.170899272
     2.925700000  2.925700000  0.000000000     0.170899272  0.170899272 -0.170899272

  length of vectors
     4.137564619  4.137564619  4.137564619     0.296006222  0.296006222  0.296006222


 FORCES acting on ions
    electron-ion (+dipol)            ewald-force                    non-local-force                 convergence-correction
 -----------------------------------------------------------------------------------------------
   -.512E-06 -.512E-06 -.383E-06   -.959E-15 0.846E-15 -.300E-14   0.311E-17 0.135E-16 0.587E-17   -.242E-07 -.242E-07 -.242E-07
   0.512E-06 0.512E-06 0.383E-06   0.101E-14 -.682E-15 0.285E-14   -.705E-17 -.140E-16 -.451E-17   0.242E-07 0.242E-07 0.242E-07
 -----------------------------------------------------------------------------------------------
   0.340E-13 0.240E-13 0.200E-13   0.499E-16 0.163E-15 -.148E-15   -.394E-17 -.470E-18 0.136E-17   0.399E-14 0.546E-14 0.821E-15
 
 
 POSITION                                       TOTAL-FORCE (eV/Angst)
 -----------------------------------------------------------------------------------
      0.00000      0.00000      0.00000        -0.000000      0.000000      0.000000
      1.46285      1.46285      1.46285         0.000000     -0.000000     -0.000000
 -----------------------------------------------------------------------------------
    total drift:                                0.000000      0.000000      0.000000


--------------------------------------------------------------------------------------------------------



  FREE ENERGIE OF THE ION-ELECTRON SYSTEM (eV)
  ---------------------------------------------------
  free  energy   TOTEN  =       -10.45250269 eV

  energy  without entropy=      -10.45249162  energy(sigma->0) =      -10.45249716
 


--------------------------------------------------------------------------------------------------------


    POTLOK:  cpu time    0.0480: real time    0.0532


--------------------------------------------------------------------------------------------------------




--------------------------------------------------------------------------------------------------------


  
 reached required accuracy - stopping structural energy minimisation
 writing wavefunctions
     LOOP+:  cpu time   14.2840: real time   14.9827
    4ORBIT:  cpu time    0.0000: real time    0.0000

 total amount of memory used by VASP MPI-rank0    34729. kBytes
=======================================================================

   base      :      30000. kBytes
   nonl-proj :       2942. kBytes
   fftplans  :        314. kBytes
   grid      :        723. kBytes
   one-center:          6. kBytes
   wavefun   :        744. kBytes
 
  
  
 General timing and accounting informations for this job:
 ========================================================
  
                  Total CPU time used (sec):       20.092
                            User time (sec):       17.432
                          System time (sec):        2.660
                         Elapsed time (sec):       22.138
  
                   Maximum memory used (kb):       11004.
                   Average memory used (kb):           0.
  
                          Minor page faults:        38486
                          Major page faults:           11
                 Voluntary context switches:        49586
