Automatically generated mesh
       3
Reciprocal lattice
    0.25000000000000    0.25000000000000    0.25000000000000            32
   -0.25000000000000    0.25000000000000    0.25000000000000            64
   -0.25000000000000   -0.25000000000000    0.25000000000000            32
