unknown system                          
   1.00000000000000     
    -2.446000    2.446000    1.275625
     2.446000   -2.446000    1.275625
     2.446000    2.446000   -1.275625
   Si
     2
Direct
  0.250000  0.750000  0.500000
  0.000000  0.000000  0.000000
 
   36   36   36
 -.52489946061E+01 -.43266814495E+01 -.17920142407E+01 0.17382101745E+01 0.54653015956E+01
 0.86458607569E+01 0.10775893708E+02 0.11675053516E+02 0.11470823325E+02 0.10509366468E+02
 0.92251924347E+01 0.79286912108E+01 0.67375362984E+01 0.57201866485E+01 0.49076615958E+01
 0.43020894580E+01 0.38895335336E+01 0.36516698182E+01 0.35741612588E+01 0.36516687083E+01
 0.38895407210E+01 0.43021026599E+01 0.49076679369E+01 0.57201853471E+01 0.67375387490E+01
 0.79286983477E+01 0.92251935728E+01 0.10509360758E+02 0.11470820975E+02 0.11675055778E+02
 0.10775892650E+02 0.86458579207E+01 0.54653052637E+01 0.17382156152E+01 -.17920191513E+01
 -.43266921311E+01 -.43266921311E+01 -.48005053469E+01 -.34774296501E+01 -.69260148999E+00
 0.28816979756E+01 0.64529896432E+01 0.93356842880E+01 0.11109966638E+02 0.11678949329E+02
 0.11232595689E+02 0.10147393373E+02 0.88463589688E+01 0.75736435782E+01 0.64275307905E+01
 0.54662792499E+01 0.47123200811E+01 0.41624043455E+01 0.38004668915E+01 0.36085071981E+01
 0.35740522161E+01 0.36943017487E+01 0.39769593129E+01 0.44377301165E+01 0.50946031000E+01
 0.59587526202E+01 0.70223655612E+01 0.82463490035E+01 0.95537789807E+01 0.10802666947E+02
 0.11635598607E+02 0.11628332039E+02 0.10477285835E+02 0.81215613628E+01 0.48170861040E+01
 0.11299136384E+01 -.21732661579E+01 -.17920191513E+01 -.34774376964E+01 -.35059661875E+01
 -.18755602710E+01 0.99830294615E+00 0.44246897536E+01 0.76555816960E+01 0.10092037036E+02
 0.11412935614E+02 0.11605689056E+02 0.10913369765E+02 0.97273333020E+01 0.84295550428E+01
 0.71935671499E+01 0.61034264099E+01 0.52060645830E+01 0.45153655214E+01 0.40233685509E+01
 0.37126659903E+01 0.35662188486E+01 0.35737729836E+01 0.37350638970E+01 0.40598153029E+01
 0.45645667597E+01 0.52663745643E+01 0.61731791337E+01 0.72715389189E+01 0.85153400793E+01
 0.98213718283E+01 0.11022537140E+02 0.11739393068E+02 0.11573474762E+02 0.10271923643E+02
 0.78388195972E+01 0.45913171275E+01 0.11299136384E+01 0.17382156152E+01 -.69260426728E+00
 -.18755639460E+01 -.15109703173E+01 0.29938934562E+00 0.30898780029E+01 0.61887784913E+01
 0.89256607192E+01 0.10808600766E+02 0.11621078573E+02 0.11428874236E+02 0.10514452589E+02
 0.92659726844E+01 0.79881749760E+01 0.68013517983E+01 0.57763252703E+01 0.49483189792E+01
 0.43232691610E+01 0.38894448405E+01 0.36289378514E+01 0.35262239959E+01 0.35734557017E+01
 0.37727263319E+01 0.41353367723E+01 0.46781019302E+01 0.54166273671E+01 0.63553879602E+01
 0.74757550249E+01 0.87260377057E+01 0.10018921099E+02 0.11168135037E+02 0.11795204441E+02
 0.11538330794E+02 0.10198873791E+02 0.78388195972E+01 0.48170861040E+01 0.54653052637E+01
 0.28817006801E+01 0.99830284154E+00 0.29939036393E+00 0.96501941733E+00 0.28108310137E+01
 0.53548995974E+01 0.79791000998E+01 0.10115169186E+02 0.11388594802E+02 0.11684888000E+02
 0.11136499040E+02 0.10048534987E+02 0.87794352945E+01 0.75362812041E+01 0.64098233915E+01
 0.54568022225E+01 0.47011347809E+01 0.41418823589E+01 0.37646507911E+01 0.35518405358E+01
 0.34898519691E+01 0.35732505769E+01 0.38061685806E+01 0.42009845901E+01 0.47742577514E+01
 0.55397435337E+01 0.64984567163E+01 0.76273469589E+01 0.88708628784E+01 0.10139836353E+02
 0.11240436048E+02 0.11812635508E+02 0.11538330794E+02 0.10271923643E+02 0.81215613628E+01
 0.86458579207E+01 0.64529893138E+01 0.44246894359E+01 0.30898802159E+01 0.28108356893E+01
 0.36603988671E+01 0.53994180230E+01 0.75626921868E+01 0.96126624971E+01 0.11097278393E+02
 0.11759857035E+02 0.11578045907E+02 0.10734977233E+02 0.95400919057E+01 0.82824524278E+01
 0.70881143683E+01 0.60312033161E+01 0.51544612929E+01 0.44716080406E+01 0.39762286611E+01
 0.36524126750E+01 0.34835635316E+01 0.34582377753E+01 0.35732553246E+01 0.38343741714E+01
 0.42545374568E+01 0.48495706574E+01 0.56311129105E+01 0.65969499111E+01 0.77206288017E+01
 0.89446019519E+01 0.10180516377E+02 0.11240436048E+02 0.11795204441E+02 0.11573474762E+02
 0.10477285835E+02 0.10775892650E+02 0.93356825526E+01 0.76555779920E+01 0.61887757158E+01
 0.53549031293E+01 0.53994245012E+01 0.63091089711E+01 0.78199631896E+01 0.95114301805E+01
 0.10943621337E+02 0.11783998435E+02 0.11885459007E+02 0.11302335219E+02 0.10249832410E+02
 0.90169626994E+01 0.77906206894E+01 0.66575701934E+01 0.56766583070E+01 0.48776359821E+01
 0.42656655042E+01 0.38304020125E+01 0.35554865495E+01 0.34258467548E+01 0.34322450229E+01
 0.35734693057E+01 0.38564409743E+01 0.42941679042E+01 0.49013313389E+01 0.56873267951E+01
 0.66471415664E+01 0.77521139534E+01 0.89446019519E+01 0.10139836353E+02 0.11168135037E+02
 0.11739393068E+02 0.11628332039E+02 0.11675055778E+02 0.11109969607E+02 0.10092036823E+02
 0.89256552871E+01 0.79790960016E+01 0.75626958540E+01 0.78199695357E+01 0.86774914474E+01
 0.98741441903E+01 0.11053860893E+02 0.11881055203E+02 0.12136589873E+02 0.11768114128E+02
 0.10887596797E+02 0.97226778250E+01 0.84981282999E+01 0.73198349895E+01 0.62576691029E+01
 0.53559695329E+01 0.46332427578E+01 0.40880266780E+01 0.37075660170E+01 0.34759511313E+01
 0.33799567478E+01 0.34124424697E+01 0.35737938409E+01 0.38716161204E+01 0.43185107597E+01
 0.49276831136E+01 0.57062986850E+01 0.66471415664E+01 0.77206288017E+01 0.88708628784E+01
 0.10018921099E+02 0.11022537140E+02 0.11635598607E+02 0.11470820975E+02 0.11678951828E+02
 0.11412941396E+02 0.10808602221E+02 0.10115163939E+02 0.96126583471E+01 0.95114330575E+01
 0.98741490025E+01 0.10593452944E+02 0.11433147218E+02 0.12112243870E+02 0.12396694753E+02
 0.12167487608E+02 0.11447895444E+02 0.10386780255E+02 0.91944758221E+01 0.80021636964E+01
 0.68855079827E+01 0.59000680597E+01 0.50773343689E+01 0.44267707493E+01 0.39422737960E+01
 0.36100328086E+01 0.34152649390E+01 0.33467247062E+01 0.33991406381E+01 0.35740783411E+01
 0.38793497602E+01 0.43267205493E+01 0.49276831136E+01 0.56873267951E+01 0.65969499111E+01
 0.76273469589E+01 0.87260377057E+01 0.98213718283E+01 0.10802666947E+02 0.10509360758E+02
 0.11232590502E+02 0.11605690958E+02 0.11621085387E+02 0.11388597633E+02 0.11097274783E+02
 0.10943618148E+02 0.11053862556E+02 0.11433149901E+02 0.11963165170E+02 0.12447169579E+02
 0.12681100741E+02 0.12522382364E+02 0.11934147015E+02 0.10993991058E+02 0.98649424586E+01
 0.86896288581E+01 0.75475907291E+01 0.65017402556E+01 0.55946782577E+01 0.48472998745E+01
 0.42623736561E+01 0.38309898122E+01 0.35393901428E+01 0.33743680123E+01 0.33266319033E+01
 0.33924707359E+01 0.35741905726E+01 0.38793497602E+01 0.43185107597E+01 0.49013313389E+01
 0.56311129105E+01 0.64984567163E+01 0.74757550249E+01 0.85153400793E+01 0.95537789807E+01
 0.92251935728E+01 0.10147387510E+02 0.10913363321E+02 0.11428874936E+02 0.11684894083E+02
 0.11759860552E+02 0.11783997063E+02 0.11881053503E+02 0.12112244378E+02 0.12447170265E+02
 0.12773893185E+02 0.12941976349E+02 0.12819013791E+02 0.12338912373E+02 0.11526515198E+02
 0.10491938835E+02 0.93662574179E+01 0.82305027671E+01 0.71515219312E+01 0.61806117021E+01
 0.53494434484E+01 0.46708121429E+01 0.41430225154E+01 0.37559224135E+01 0.34966425659E+01
 0.33537994920E+01 0.33199118199E+01 0.33924707359E+01 0.35740783411E+01 0.38716161204E+01
 0.42941679042E+01 0.48495706574E+01 0.55397435337E+01 0.63553879602E+01 0.72715389189E+01
 0.82463490035E+01 0.79286983477E+01 0.88463622398E+01 0.97273290841E+01 0.10514446549E+02
 0.11136498399E+02 0.11578050022E+02 0.11885462369E+02 0.12136590528E+02 0.12396694555E+02
 0.12681100435E+02 0.12941975603E+02 0.13084655158E+02 0.13005144068E+02 0.12632356892E+02
 0.11958976551E+02 0.11050592679E+02 0.10011329639E+02 0.89177256949E+01 0.78376036600E+01
 0.68285327144E+01 0.59317328068E+01 0.51702981940E+01 0.45513498628E+01 0.40706779047E+01
 0.37181378459E+01 0.34823360349E+01 0.33537994920E+01 0.33266319033E+01 0.33991406381E+01
 0.35737938409E+01 0.38564409743E+01 0.42545374568E+01 0.47742577514E+01 0.54166273671E+01
 0.61731791337E+01 0.70223655612E+01 0.67375387490E+01 0.75736502817E+01 0.84295597251E+01
 0.92659710899E+01 0.10048530638E+02 0.10734975579E+02 0.11302336893E+02 0.11768116641E+02
 0.12167489574E+02 0.12522383292E+02 0.12819013064E+02 0.13005142579E+02 0.13008215386E+02
 0.12765696999E+02 0.12254427731E+02 0.11507309480E+02 0.10596286924E+02 0.95863770422E+01
 0.85432288033E+01 0.75280425332E+01 0.65899771442E+01 0.57621016186E+01 0.50612748620E+01
 0.44910962737E+01 0.40464445225E+01 0.37181378459E+01 0.34966425659E+01 0.33743680123E+01
 0.33467247062E+01 0.34124424697E+01 0.35734693057E+01 0.38343741714E+01 0.42009845901E+01
 0.46781019302E+01 0.52663745643E+01 0.59587526202E+01 0.57201853471E+01 0.64275309403E+01
 0.71935717983E+01 0.79881798772E+01 0.87794363105E+01 0.95400898721E+01 0.10249830317E+02
 0.10887596276E+02 0.11447896784E+02 0.11934149456E+02 0.12338913851E+02 0.12632356046E+02
 0.12765695380E+02 0.12688358083E+02 0.12370893604E+02 0.11823043706E+02 0.11084679305E+02
 0.10205083541E+02 0.92437417049E+01 0.82620288989E+01 0.73146874867E+01 0.64437778590E+01
 0.56762019331E+01 0.50246840513E+01 0.44910962737E+01 0.40706779047E+01 0.37559224135E+01
 0.35393901428E+01 0.34152649390E+01 0.33799567478E+01 0.34322450229E+01 0.35732553246E+01
 0.38061685806E+01 0.41353367723E+01 0.45645667597E+01 0.50946031000E+01 0.49076679369E+01
 0.54662777861E+01 0.61034243654E+01 0.68013534687E+01 0.75362851016E+01 0.82824552692E+01
 0.90169628772E+01 0.97226758407E+01 0.10386778262E+02 0.10993991316E+02 0.11526517428E+02
 0.11958977996E+02 0.12254426946E+02 0.12370892303E+02 0.12276098230E+02 0.11960662824E+02
 0.11436213149E+02 0.10734911419E+02 0.99051954858E+01 0.90039590168E+01 0.80878946469E+01
 0.72059528909E+01 0.63945434287E+01 0.56762019331E+01 0.50612748620E+01 0.45513498628E+01
 0.41430225154E+01 0.38309898122E+01 0.36100328086E+01 0.34759511313E+01 0.34258467548E+01
 0.34582377753E+01 0.35732505769E+01 0.37727263319E+01 0.40598153029E+01 0.44377301165E+01
 0.43021026599E+01 0.47123262061E+01 0.52060634428E+01 0.57763217201E+01 0.64098220310E+01
 0.70881164483E+01 0.77906242442E+01 0.84981300319E+01 0.91944742884E+01 0.98649398895E+01
 0.10491938379E+02 0.11050594243E+02 0.11507310425E+02 0.11823043081E+02 0.11960662117E+02
 0.11893797854E+02 0.11614001024E+02 0.11133950923E+02 0.10486047499E+02 0.97171073595E+01
 0.88806916584E+01 0.80289586043E+01 0.72059528909E+01 0.64437778590E+01 0.57621016186E+01
 0.51702981940E+01 0.46708121429E+01 0.42623736561E+01 0.39422737960E+01 0.37075660170E+01
 0.35554865495E+01 0.34835635316E+01 0.34898519691E+01 0.35734557017E+01 0.37350638970E+01
 0.39769593129E+01 0.38895407210E+01 0.41624120775E+01 0.45153700111E+01 0.49483183293E+01
 0.54567980556E+01 0.60311996284E+01 0.66575703083E+01 0.73198382697E+01 0.80021660895E+01
 0.86896278859E+01 0.93662550712E+01 0.10011328892E+02 0.10596287574E+02 0.11084679470E+02
 0.11436212739E+02 0.11614001013E+02 0.11592648507E+02 0.11364503998E+02 0.10942201830E+02
 0.10356927034E+02 0.96530610922E+01 0.88806916584E+01 0.80878946469E+01 0.73146874867E+01
 0.65899771442E+01 0.59317328068E+01 0.53494434484E+01 0.48472998745E+01 0.44267707493E+01
 0.40880266780E+01 0.38304020125E+01 0.36524126750E+01 0.35518405358E+01 0.35262239959E+01
 0.35737729836E+01 0.36943017487E+01 0.36516687083E+01 0.38004653034E+01 0.40233691135E+01
 0.43232708522E+01 0.47011343909E+01 0.51544572752E+01 0.56766534637E+01 0.62576677440E+01
 0.68855103831E+01 0.75475929573E+01 0.82305023024E+01 0.89177240994E+01 0.95863763065E+01
 0.10205083206E+02 0.10734910751E+02 0.11133950749E+02 0.11364504604E+02 0.11400705535E+02
 0.11234246014E+02 0.10876559397E+02 0.10356927034E+02 0.97171073595E+01 0.90039590168E+01
 0.82620288989E+01 0.75280425332E+01 0.68285327144E+01 0.61806117021E+01 0.55946782577E+01
 0.50773343689E+01 0.46332427578E+01 0.42656655042E+01 0.39762286611E+01 0.37646507911E+01
 0.36289378514E+01 0.35662188486E+01 0.35740522161E+01 0.35741612588E+01 0.36084999574E+01
 0.37126562302E+01 0.38894383641E+01 0.41418807750E+01 0.44716074987E+01 0.48776326318E+01
 0.53559648016E+01 0.59000660595E+01 0.65017415637E+01 0.71515234288E+01 0.78376035855E+01
 0.85432281760E+01 0.92437411188E+01 0.99051942667E+01 0.10486046152E+02 0.10942201849E+02
 0.11234246985E+02 0.11334853655E+02 0.11234246014E+02 0.10942201830E+02 0.10486047499E+02
 0.99051954858E+01 0.92437417049E+01 0.85432288033E+01 0.78376036600E+01 0.71515219312E+01
 0.65017402556E+01 0.59000680597E+01 0.53559695329E+01 0.48776359821E+01 0.44716080406E+01
 0.41418823589E+01 0.38894448405E+01 0.37126659903E+01 0.36085071981E+01 0.36516698182E+01
 0.35740481319E+01 0.35662071981E+01 0.36289224891E+01 0.37646392439E+01 0.39762243125E+01
 0.42656645535E+01 0.46332403592E+01 0.50773307537E+01 0.55946763998E+01 0.61806119743E+01
 0.68285332541E+01 0.75280427488E+01 0.82620291883E+01 0.90039585935E+01 0.97171055292E+01
 0.10356925312E+02 0.10876559492E+02 0.11234246985E+02 0.11400705535E+02 0.11364503998E+02
 0.11133950923E+02 0.10734911419E+02 0.10205083541E+02 0.95863770422E+01 0.89177256949E+01
 0.82305027671E+01 0.75475907291E+01 0.68855079827E+01 0.62576691029E+01 0.56766583070E+01
 0.51544612929E+01 0.47011347809E+01 0.43232691610E+01 0.40233685509E+01 0.38004668915E+01
 0.38895335336E+01 0.36942963291E+01 0.35737655732E+01 0.35262105355E+01 0.35518234315E+01
 0.36523993518E+01 0.38303963234E+01 0.40880254104E+01 0.44267694050E+01 0.48472978998E+01
 0.53494422093E+01 0.59317322504E+01 0.65899768144E+01 0.73146879205E+01 0.80878955898E+01
 0.88806913357E+01 0.96530590439E+01 0.10356925312E+02 0.10942201849E+02 0.11364504604E+02
 0.11592648507E+02 0.11614001024E+02 0.11436213149E+02 0.11084679305E+02 0.10596286924E+02
 0.10011329639E+02 0.93662574179E+01 0.86896288581E+01 0.80021636964E+01 0.73198349895E+01
 0.66575701934E+01 0.60312033161E+01 0.54568022225E+01 0.49483189792E+01 0.45153655214E+01
 0.41624043455E+01 0.43020894580E+01 0.39769449784E+01 0.37350532044E+01 0.35734465497E+01
 0.34898396856E+01 0.34835488583E+01 0.35554751128E+01 0.37075608354E+01 0.39422725952E+01
 0.42623733387E+01 0.46708118420E+01 0.51702976926E+01 0.57621005115E+01 0.64437769559E+01
 0.72059534537E+01 0.80289597847E+01 0.88806913357E+01 0.97171055292E+01 0.10486046152E+02
 0.11133950749E+02 0.11614001013E+02 0.11893797854E+02 0.11960662824E+02 0.11823043706E+02
 0.11507309480E+02 0.11050592679E+02 0.10491938835E+02 0.98649424586E+01 0.91944758221E+01
 0.84981282999E+01 0.77906206894E+01 0.70881143683E+01 0.64098233915E+01 0.57763252703E+01
 0.52060645830E+01 0.47123200811E+01 0.49076615958E+01 0.44377145267E+01 0.40597974146E+01
 0.37727132250E+01 0.35732419691E+01 0.34582294547E+01 0.34258379351E+01 0.34759445170E+01
 0.36100297135E+01 0.38309891143E+01 0.41430230912E+01 0.45513508915E+01 0.50612749292E+01
 0.56762005605E+01 0.63945423301E+01 0.72059534537E+01 0.80878955898E+01 0.90039585935E+01
 0.99051942667E+01 0.10734910751E+02 0.11436212739E+02 0.11960662117E+02 0.12276098230E+02
 0.12370893604E+02 0.12254427731E+02 0.11958976551E+02 0.11526515198E+02 0.10993991058E+02
 0.10386780255E+02 0.97226778250E+01 0.90169626994E+01 0.82824524278E+01 0.75362812041E+01
 0.68013517983E+01 0.61034264099E+01 0.54662792499E+01 0.57201866485E+01 0.50945978433E+01
 0.45645524597E+01 0.41353200099E+01 0.38061568515E+01 0.35732497401E+01 0.34322426237E+01
 0.33799556141E+01 0.34152645137E+01 0.35393898439E+01 0.37559224228E+01 0.40706791130E+01
 0.44910980345E+01 0.50246843304E+01 0.56762005605E+01 0.64437769559E+01 0.73146879205E+01
 0.82620291883E+01 0.92437411188E+01 0.10205083206E+02 0.11084679470E+02 0.11823043081E+02
 0.12370892303E+02 0.12688358083E+02 0.12765696999E+02 0.12632356892E+02 0.12338912373E+02
 0.11934147015E+02 0.11447895444E+02 0.10887596797E+02 0.10249832410E+02 0.95400919057E+01
 0.87794352945E+01 0.79881749760E+01 0.71935671499E+01 0.64275307905E+01 0.67375362984E+01
 0.59587532295E+01 0.52663713046E+01 0.46780922370E+01 0.42009734023E+01 0.38343673735E+01
 0.35734686313E+01 0.34124466195E+01 0.33467310988E+01 0.33743732154E+01 0.34966446179E+01
 0.37181383659E+01 0.40464459632E+01 0.44910980345E+01 0.50612749292E+01 0.57621005115E+01
 0.65899768144E+01 0.75280427488E+01 0.85432281760E+01 0.95863763065E+01 0.10596287574E+02
 0.11507310425E+02 0.12254426946E+02 0.12765695380E+02 0.13008215386E+02 0.13005144068E+02
 0.12819013791E+02 0.12522382364E+02 0.12167487608E+02 0.11768114128E+02 0.11302335219E+02
 0.10734977233E+02 0.10048534987E+02 0.92659726844E+01 0.84295550428E+01 0.75736435782E+01
 0.79286912108E+01 0.70223614474E+01 0.61731787270E+01 0.54166264905E+01 0.47742547851E+01
 0.42545347354E+01 0.38564411725E+01 0.35737986180E+01 0.33991503983E+01 0.33266437493E+01
 0.33538080267E+01 0.34823390014E+01 0.37181383659E+01 0.40706791130E+01 0.45513508915E+01
 0.51702976926E+01 0.59317322504E+01 0.68285332541E+01 0.78376035855E+01 0.89177240994E+01
 0.10011328892E+02 0.11050594243E+02 0.11958977996E+02 0.12632356046E+02 0.13005142579E+02
 0.13084655158E+02 0.12941976349E+02 0.12681100741E+02 0.12396694753E+02 0.12136589873E+02
 0.11885459007E+02 0.11578045907E+02 0.11136499040E+02 0.10514452589E+02 0.97273333020E+01
 0.88463589688E+01 0.92251924347E+01 0.82463432890E+01 0.72715343164E+01 0.63553865185E+01
 0.55397449299E+01 0.48495748803E+01 0.42941740927E+01 0.38716230581E+01 0.35740873877E+01
 0.33924837367E+01 0.33199256545E+01 0.33538080267E+01 0.34966446179E+01 0.37559224228E+01
 0.41430230912E+01 0.46708118420E+01 0.53494422093E+01 0.61806119743E+01 0.71515234288E+01
 0.82305023024E+01 0.93662550712E+01 0.10491938379E+02 0.11526517428E+02 0.12338913851E+02
 0.12819013064E+02 0.12941975603E+02 0.12773893185E+02 0.12447169579E+02 0.12112243870E+02
 0.11881055203E+02 0.11783998435E+02 0.11759857035E+02 0.11684888000E+02 0.11428874236E+02
 0.10913369765E+02 0.10147393373E+02 0.10509366468E+02 0.95537800067E+01 0.85153372938E+01
 0.74757511615E+01 0.64984544741E+01 0.56311161244E+01 0.49013415241E+01 0.43185236665E+01
 0.38793608164E+01 0.35742012362E+01 0.33924837367E+01 0.33266437493E+01 0.33743732154E+01
 0.35393898439E+01 0.38309891143E+01 0.42623733387E+01 0.48472978998E+01 0.55946763998E+01
 0.65017415637E+01 0.75475929573E+01 0.86896278859E+01 0.98649398895E+01 0.10993991316E+02
 0.11934149456E+02 0.12522383292E+02 0.12681100435E+02 0.12447170265E+02 0.11963165170E+02
 0.11433147218E+02 0.11053860893E+02 0.10943621337E+02 0.11097278393E+02 0.11388594802E+02
 0.11621078573E+02 0.11605689056E+02 0.11232595689E+02 0.11470823325E+02 0.10802670502E+02
 0.98213744944E+01 0.87260385359E+01 0.76273445859E+01 0.65969472056E+01 0.56873311733E+01
 0.49276966661E+01 0.43267359509E+01 0.38793608164E+01 0.35740873877E+01 0.33991503983E+01
 0.33467310988E+01 0.34152645137E+01 0.36100297135E+01 0.39422725952E+01 0.44267694050E+01
 0.50773307537E+01 0.59000660595E+01 0.68855103831E+01 0.80021660895E+01 0.91944742884E+01
 0.10386778262E+02 0.11447896784E+02 0.12167489574E+02 0.12396694555E+02 0.12112244378E+02
 0.11433149901E+02 0.10593452944E+02 0.98741441903E+01 0.95114301805E+01 0.96126624971E+01
 0.10115169186E+02 0.10808600766E+02 0.11412935614E+02 0.11678949329E+02 0.11675053516E+02
 0.11635597123E+02 0.11022537175E+02 0.10018924703E+02 0.88708669671E+01 0.77206278529E+01
 0.66471386782E+01 0.57063034643E+01 0.49276966661E+01 0.43185236665E+01 0.38716230581E+01
 0.35737986180E+01 0.34124466195E+01 0.33799556141E+01 0.34759445170E+01 0.37075608354E+01
 0.40880254104E+01 0.46332403592E+01 0.53559648016E+01 0.62576677440E+01 0.73198382697E+01
 0.84981300319E+01 0.97226758407E+01 0.10887596276E+02 0.11768116641E+02 0.12136590528E+02
 0.11881053503E+02 0.11053862556E+02 0.98741490025E+01 0.86774914474E+01 0.78199631896E+01
 0.75626921868E+01 0.79791000998E+01 0.89256607192E+01 0.10092037036E+02 0.11109966638E+02
 0.10775893708E+02 0.11628330715E+02 0.11739387726E+02 0.11168131488E+02 0.10139840347E+02
 0.89446079681E+01 0.77521135862E+01 0.66471386782E+01 0.56873311733E+01 0.49013415241E+01
 0.42941740927E+01 0.38564411725E+01 0.35734686313E+01 0.34322426237E+01 0.34258379351E+01
 0.35554751128E+01 0.38303963234E+01 0.42656645535E+01 0.48776326318E+01 0.56766534637E+01
 0.66575703083E+01 0.77906242442E+01 0.90169628772E+01 0.10249830317E+02 0.11302336893E+02
 0.11885462369E+02 0.11783997063E+02 0.10943618148E+02 0.95114330575E+01 0.78199695357E+01
 0.63091089711E+01 0.53994180230E+01 0.53548995974E+01 0.61887784913E+01 0.76555816960E+01
 0.93356842880E+01 0.86458607569E+01 0.10477291103E+02 0.11573474605E+02 0.11795196260E+02
 0.11240430259E+02 0.10180520465E+02 0.89446079681E+01 0.77206278529E+01 0.65969472056E+01
 0.56311161244E+01 0.48495748803E+01 0.42545347354E+01 0.38343673735E+01 0.35732497401E+01
 0.34582294547E+01 0.34835488583E+01 0.36523993518E+01 0.39762243125E+01 0.44716074987E+01
 0.51544572752E+01 0.60311996284E+01 0.70881164483E+01 0.82824552692E+01 0.95400898721E+01
 0.10734975579E+02 0.11578050022E+02 0.11759860552E+02 0.11097274783E+02 0.96126583471E+01
 0.75626958540E+01 0.53994245012E+01 0.36603988671E+01 0.28108310137E+01 0.30898780029E+01
 0.44246897536E+01 0.64529896432E+01 0.54653015956E+01 0.81215648367E+01 0.10271932100E+02
 0.11538331434E+02 0.11812626286E+02 0.11240430259E+02 0.10139840347E+02 0.88708669671E+01
 0.76273445859E+01 0.64984544741E+01 0.55397449299E+01 0.47742547851E+01 0.42009734023E+01
 0.38061568515E+01 0.35732419691E+01 0.34898396856E+01 0.35518234315E+01 0.37646392439E+01
 0.41418807750E+01 0.47011343909E+01 0.54567980556E+01 0.64098220310E+01 0.75362851016E+01
 0.87794363105E+01 0.10048530638E+02 0.11136498399E+02 0.11684894083E+02 0.11388597633E+02
 0.10115163939E+02 0.79790960016E+01 0.53549031293E+01 0.28108356893E+01 0.96501941733E+00
 0.29938934562E+00 0.99830294615E+00 0.28816979756E+01 0.17382101745E+01 0.48170792253E+01
 0.78388233433E+01 0.10198883437E+02 0.11538331434E+02 0.11795196260E+02 0.11168131488E+02
 0.10018924703E+02 0.87260385359E+01 0.74757511615E+01 0.63553865185E+01 0.54166264905E+01
 0.46780922370E+01 0.41353200099E+01 0.37727132250E+01 0.35734465497E+01 0.35262105355E+01
 0.36289224891E+01 0.38894383641E+01 0.43232708522E+01 0.49483183293E+01 0.57763217201E+01
 0.68013534687E+01 0.79881798772E+01 0.92659710899E+01 0.10514446549E+02 0.11428874936E+02
 0.11621085387E+02 0.10808602221E+02 0.89256552871E+01 0.61887757158E+01 0.30898802159E+01
 0.29939036393E+00 -.15109703173E+01 -.18755602710E+01 -.69260148999E+00 -.17920142407E+01
 0.11299065772E+01 0.45913090230E+01 0.78388233433E+01 0.10271932100E+02 0.11573474605E+02
 0.11739387726E+02 0.11022537175E+02 0.98213744944E+01 0.85153372938E+01 0.72715343164E+01
 0.61731787270E+01 0.52663713046E+01 0.45645524597E+01 0.40597974146E+01 0.37350532044E+01
 0.35737655732E+01 0.35662071981E+01 0.37126562302E+01 0.40233691135E+01 0.45153700111E+01
 0.52060634428E+01 0.61034243654E+01 0.71935717983E+01 0.84295597251E+01 0.97273290841E+01
 0.10913363321E+02 0.11605690958E+02 0.11412941396E+02 0.10092036823E+02 0.76555779920E+01
 0.44246894359E+01 0.99830284154E+00 -.18755639460E+01 -.35059661875E+01 -.34774296501E+01
 -.43266814495E+01 -.21732604332E+01 0.11299065772E+01 0.48170792253E+01 0.81215648367E+01
 0.10477291103E+02 0.11628330715E+02 0.11635597123E+02 0.10802670502E+02 0.95537800067E+01
 0.82463432890E+01 0.70223614474E+01 0.59587532295E+01 0.50945978433E+01 0.44377145267E+01
 0.39769449784E+01 0.36942963291E+01 0.35740481319E+01 0.36084999574E+01 0.38004653034E+01
 0.41624120775E+01 0.47123262061E+01 0.54662777861E+01 0.64275309403E+01 0.75736502817E+01
 0.88463622398E+01 0.10147387510E+02 0.11232590502E+02 0.11678951828E+02 0.11109969607E+02
 0.93356825526E+01 0.64529893138E+01 0.28817006801E+01 -.69260426728E+00 -.34774376964E+01
 -.48005053469E+01 -.43266833576E+01 -.36455294694E+01 -.13976359464E+01 0.18670769079E+01
 0.53991351216E+01 0.84743675941E+01 0.10578917164E+02 0.11504041268E+02 0.11343898663E+02
 0.10417656977E+02 0.91463584385E+01 0.78502888451E+01 0.66524790965E+01 0.56236684169E+01
 0.47970421820E+01 0.41759790888E+01 0.37468023421E+01 0.34907266182E+01 0.33924488549E+01
 0.34453251245E+01 0.36533754209E+01 0.40300773010E+01 0.45939796145E+01 0.53609828009E+01
 0.63331035456E+01 0.74854491940E+01 0.87565782498E+01 0.10043216404E+02 0.11082004355E+02
 0.11452911835E+02 0.10801575005E+02 0.89724123778E+01 0.60998147835E+01 0.26306046956E+01
 -.74723219303E+00 -.32712268277E+01 -.36455387805E+01 -.43266928629E+01 -.32712333036E+01
 -.74724061554E+00 0.26305906303E+01 0.60998002551E+01 0.89724066364E+01 0.10801580506E+02
 0.11452921862E+02 0.11082011739E+02 0.10043220580E+02 0.87565817915E+01 0.74854516751E+01
 0.63331031178E+01 0.53609810492E+01 0.45939796110E+01 0.40300781306E+01 0.36533738512E+01
 0.34453221248E+01 0.33924489694E+01 0.34907305585E+01 0.37468057074E+01 0.41759795169E+01
 0.47970422940E+01 0.56236698008E+01 0.66524787824E+01 0.78502845851E+01 0.91463525051E+01
 0.10417651170E+02 0.11343890376E+02 0.11504029597E+02 0.10578909203E+02 0.84743719575E+01
 0.53991497435E+01 0.18670890924E+01 -.13976359056E+01 -.13241240195E+01 -.31925819359E+01
 -.34774462899E+01 -.21129117003E+01 0.55017031705E+00 0.38634423830E+01 0.70875252344E+01
 0.96010913373E+01 0.11042880894E+02 0.11358192335E+02 0.10758311744E+02 0.96195889626E+01
 0.83352719262E+01 0.71007950151E+01 0.60044214450E+01 0.50968097382E+01 0.43943544669E+01
 0.38901946627E+01 0.35669657710E+01 0.34070201866E+01 0.33991235905E+01 0.35419528888E+01
 0.38445044499E+01 0.43233881462E+01 0.49969709857E+01 0.58760823360E+01 0.69517441172E+01
 0.81832461113E+01 0.94925814768E+01 0.10734070355E+02 0.11552044074E+02 0.11542906132E+02
 0.10432158135E+02 0.81874523127E+01 0.50803249281E+01 0.16674926265E+01 0.20578999697E+01
 -.53459430391E+00 -.19641095109E+01 -.18755773467E+01 -.30296276987E+00 0.23435165206E+01
 0.54160812917E+01 0.82322374003E+01 0.10261696380E+02 0.11239922389E+02 0.11190616382E+02
 0.10370158791E+02 0.91608145305E+01 0.78950044849E+01 0.67086035154E+01 0.56770966890E+01
 0.48395826246E+01 0.42043344793E+01 0.37605146654E+01 0.34901320294E+01 0.33770198972E+01
 0.34124336626E+01 0.35976430829E+01 0.39435973889E+01 0.44676309287E+01 0.51870678018E+01
 0.61094626417E+01 0.72204242639E+01 0.84729418286E+01 0.97840436155E+01 0.10987329002E+02
 0.11715676860E+02 0.11595616623E+02 0.10402443176E+02 0.81608254126E+01 0.51885705563E+01
 0.57132306735E+01 0.29926964887E+01 0.87990183611E+00 -.99260345128E-01 0.29937516405E+00
 0.19558944052E+01 0.44294103147E+01 0.71062637101E+01 0.93887721123E+01 0.10853656803E+02
 0.11336073085E+02 0.10930513983E+02 0.99239238907E+01 0.86827054053E+01 0.74486784201E+01
 0.63209468472E+01 0.53611931108E+01 0.45970017039E+01 0.40294341315E+01 0.36447426799E+01
 0.34251300100E+01 0.33563610918E+01 0.34322456405E+01 0.36563722006E+01 0.40411454421E+01
 0.46040346000E+01 0.53607859077E+01 0.63154709539E+01 0.74488130589E+01 0.87090488559E+01
 0.10010468674E+02 0.11173983140E+02 0.11841146498E+02 0.11677022141E+02 0.10507418926E+02
 0.84047437967E+01 0.88892651290E+01 0.65898599008E+01 0.43616882021E+01 0.27585494082E+01
 0.21954891932E+01 0.28108208196E+01 0.44201052223E+01 0.65821996698E+01 0.87465357483E+01
 0.10419506691E+02 0.11291309200E+02 0.11291871439E+02 0.10573586824E+02 0.94368706639E+01
 0.81982515982E+01 0.70092298906E+01 0.59492463153E+01 0.50657865742E+01 0.43757613673E+01
 0.38743291121E+01 0.35459745617E+01 0.33738152763E+01 0.33458230296E+01 0.34582465067E+01
 0.37165965842E+01 0.41341920671E+01 0.47280728697E+01 0.55119836541E+01 0.64865308273E+01
 0.76283665776E+01 0.88827087152E+01 0.10163424325E+02 0.11290595688E+02 0.11929176703E+02
 0.11787407983E+02 0.10738273145E+02 0.11061272254E+02 0.95491615274E+01 0.77101046231E+01
 0.60063434023E+01 0.48940633155E+01 0.46761398831E+01 0.53994111898E+01 0.68407632666E+01
 0.85869932697E+01 0.10171887798E+02 0.11215157269E+02 0.11517747109E+02 0.11092768187E+02
 0.10133825479E+02 0.89347770406E+01 0.77209165654E+01 0.65892777364E+01 0.56038947638E+01
 0.47986896420E+01 0.41813834133E+01 0.37427559847E+01 0.34666156206E+01 0.33375504291E+01
 0.33458256490E+01 0.34898659065E+01 0.37766348033E+01 0.42198162390E+01 0.48355051296E+01
 0.56351511698E+01 0.66161309050E+01 0.77520553079E+01 0.89869258321E+01 0.10236674138E+02
 0.11332815245E+02 0.11973826500E+02 0.11912151197E+02 0.12024326362E+02 0.11423406977E+02
 0.10294098318E+02 0.89378518622E+01 0.77428563441E+01 0.70625336364E+01 0.70961273746E+01
 0.78199585709E+01 0.89986337714E+01 0.10269426882E+02 0.11262339227E+02 0.11709867981E+02
 0.11513226357E+02 0.10752191994E+02 0.96427842386E+01 0.84369048747E+01 0.72646834081E+01
 0.62007176055E+01 0.52939703696E+01 0.45663177519E+01 0.40181783483E+01 0.36375016588E+01
 0.34083547059E+01 0.33171521515E+01 0.33563686934E+01 0.35262401376E+01 0.38346804757E+01
 0.42952045538E+01 0.49225145650E+01 0.57256184109E+01 0.66990968366E+01 0.78146930224E+01
 0.90169704011E+01 0.10226191994E+02 0.11295476811E+02 0.11963350252E+02 0.11882724759E+02
 0.12089724912E+02 0.11761191529E+02 0.11022548837E+02 0.10129293364E+02 0.93885454421E+01
 0.90549626173E+01 0.92402789493E+01 0.98741411189E+01 0.10732131731E+02 0.11516725773E+02
 0.11956568351E+02 0.11888168266E+02 0.11296809244E+02 0.10309411769E+02 0.91418894823E+01
 0.79592912414E+01 0.68434740584E+01 0.58543163645E+01 0.50270717292E+01 0.43736930119E+01
 0.38893161667E+01 0.35604695248E+01 0.33721952587E+01 0.33128930109E+01 0.33770315410E+01
 0.35662352929E+01 0.38888597721E+01 0.43577484950E+01 0.49858544671E+01 0.57797579133E+01
 0.67318494583E+01 0.78132502056E+01 0.89707575275E+01 0.10130615594E+02 0.11173700898E+02
 0.10964728648E+02 0.11717339989E+02 0.12073439980E+02 0.12011265694E+02 0.11637361756E+02
 0.11153786250E+02 0.10787212053E+02 0.10704944638E+02 0.10951606542E+02 0.11433145747E+02