 vasp.5.4.4.18Apr17-6-g9f103f2a35 (build Dec 09 2018 21:25:21) complex          
  
 executed on IFC18.0.1.163_CrayMP date 2019.03.20  09:37:19
 running on    8 total cores
 distrk:  each k-point on    8 cores,    1 groups
 distr:  one band on NCORES_PER_BAND=   1 cores,    8 groups


--------------------------------------------------------------------------------------------------------


 INCAR:
 POTCAR:   PAW_PBE Si 05Jan2001                   

 ----------------------------------------------------------------------------- 
|                                                                             |
|           W    W    AA    RRRRR   N    N  II  N    N   GGGG   !!!           |
|           W    W   A  A   R    R  NN   N  II  NN   N  G    G  !!!           |
|           W    W  A    A  R    R  N N  N  II  N N  N  G       !!!           |
|           W WW W  AAAAAA  RRRRR   N  N N  II  N  N N  G  GGG   !            |
|           WW  WW  A    A  R   R   N   NN  II  N   NN  G    G                |
|           W    W  A    A  R    R  N    N  II  N    N   GGGG   !!!           |
|                                                                             |
|      For optimal performance we recommend to set                            |
|        NCORE= 4 - approx SQRT( number of cores)                             |
|      NCORE specifies how many cores store one orbital (NPAR=cpu/NCORE).     |
|      This setting can  greatly improve the performance of VASP for DFT.     |
|      The default,   NCORE=1            might be grossly inefficient         |
|      on modern multi-core architectures or massively parallel machines.     |
|      Do your own testing !!!!                                               |
|      Unfortunately you need to use the default for GW and RPA calculations. |
|      (for HF NCORE is supported but not extensively tested yet)             |
|                                                                             |
 ----------------------------------------------------------------------------- 

 POTCAR:   PAW_PBE Si 05Jan2001                   
   VRHFIN =Si: s2p2                                                             
   LEXCH  = PE                                                                  
   EATOM  =   103.0669 eV,    7.5752 Ry                                         
                                                                                
   TITEL  = PAW_PBE Si 05Jan2001                                                
   LULTRA =        F    use ultrasoft PP ?                                      
   IUNSCR =        1    unscreen: 0-lin 1-nonlin 2-no                           
   RPACOR =    1.500    partial core radius                                     
   POMASS =   28.085; ZVAL   =    4.000    mass and valenz                      
   RCORE  =    1.900    outmost cutoff radius                                   
   RWIGS  =    2.480; RWIGS  =    1.312    wigner-seitz radius (au A)           
   ENMAX  =  245.345; ENMIN  =  184.009 eV                                      
   ICORE  =        2    local potential                                         
   LCOR   =        T    correct aug charges                                     
   LPAW   =        T    paw PP                                                  
   EAUG   =  322.069                                                            
   DEXC   =    -.007                                                            
   RMAX   =    2.944    core radius for proj-oper                               
   RAUG   =    1.300    factor for augmentation sphere                          
   RDEP   =    1.993    radius for radial grids                                 
   QCUT   =   -4.246; QGAM   =    8.493    optimization parameters              
                                                                                
   Description                                                                  
     l     E      TYP  RCUT    TYP  RCUT                                        
     0   .000     23  1.900                                                     
     0   .000     23  1.900                                                     
     1   .000     23  1.900                                                     
     1   .000     23  1.900                                                     
     2   .000      7  1.900                                                     
  local pseudopotential read in
  partial core-charges read in
  atomic valenz-charges read in
  non local Contribution for L=           0  read in
    real space projection operators read in
  non local Contribution for L=           0  read in
    real space projection operators read in
  non local Contribution for L=           1  read in
    real space projection operators read in
  non local Contribution for L=           1  read in
    real space projection operators read in
    PAW grid and wavefunctions read in
 
   number of l-projection  operators is LMAX  =           4
   number of lm-projection operators is LMMAX =           8
 
 PAW_PBE Si 05Jan2001                   :
 energy of atom  1       EATOM= -103.0669
 kinetic energy error for atom=    0.0013 (will be added to EATOM!!)
 
 
 POSCAR: Si2                                     
  positions in direct lattice
  No initial velocities read in
 exchange correlation table for  LEXCH =        8
   RHO(1)=    0.500       N(1)  =     2000
   RHO(2)=  100.500       N(2)  =     4000
 


--------------------------------------------------------------------------------------------------------


 ion  position               nearest neighbor table
   1  0.250  0.750  0.500-   2 2.53   2 2.53   2 2.53   2 2.53   2 3.11   2 3.11   2 3.11   2 3.11

   2  0.000  0.000  0.000-   1 2.53   1 2.53   1 2.53   1 2.53   1 3.11   1 3.11   1 3.11   1 3.11

 
  LATTYP: Found a body centered tetragonal cell.
 ALAT       =     4.9000000000
 C/A-ratio  =     0.5200000000
  
  Lattice vectors:
  
 A1 = (  -2.4500000000,   2.4500000000,   1.2740000000)
 A2 = (   2.4500000000,  -2.4500000000,   1.2740000000)
 A3 = (   2.4500000000,   2.4500000000,  -1.2740000000)


Analysis of symmetry for initial positions (statically):
=====================================================================
 Subroutine PRICEL returns:
 Original cell was already a primitive cell.
 

 Routine SETGRP: Setting up the symmetry group for a 
 body centered tetragonal supercell.


 Subroutine GETGRP returns: Found 16 space group operations
 (whereof  8 operations were pure point group operations)
 out of a pool of 16 trial point group operations.


The static configuration has the point symmetry D_2d.
 The point group associated with its full space group is D_4h.


Analysis of symmetry for dynamics (positions and initial velocities):
=====================================================================
 Subroutine PRICEL returns:
 Original cell was already a primitive cell.
 

 Routine SETGRP: Setting up the symmetry group for a 
 body centered tetragonal supercell.


 Subroutine GETGRP returns: Found 16 space group operations
 (whereof  8 operations were pure point group operations)
 out of a pool of 16 trial point group operations.


The dynamic configuration has the point symmetry D_2d.
 The point group associated with its full space group is D_4h.


 Subroutine INISYM returns: Found 16 space group operations
 (whereof  8 operations are pure point group operations),
 and found     1 'primitive' translations

 
 
 KPOINTS: Automatic kpoint scheme                 

Automatic generation of k-mesh.
Space group operators:
 irot       det(A)        alpha          n_x          n_y          n_z        tau_x        tau_y        tau_z
    1     1.000000     0.000000     1.000000     0.000000     0.000000     0.000000     0.000000     0.000000
    2    -1.000000    90.000000    -0.000000    -0.000000    -1.000000     0.000000     0.000000     0.000000
    3     1.000000   180.000000    -0.000000    -0.000000    -1.000000     0.000000     0.000000     0.000000
    4    -1.000000    90.000000    -0.000000     0.000000     1.000000     0.000000     0.000000     0.000000
    5    -1.000000   180.000000     0.000000    -1.000000     0.000000     0.000000     0.000000     0.000000
    6     1.000000   180.000000     0.707107     0.707107    -0.000000     0.000000     0.000000     0.000000
    7    -1.000000   180.000000     1.000000     0.000000     0.000000     0.000000     0.000000     0.000000
    8     1.000000   180.000000     0.707107    -0.707107     0.000000     0.000000     0.000000     0.000000
    9    -1.000000     0.000000     1.000000     0.000000     0.000000     0.250000     0.750000     0.500000
   10     1.000000    90.000000    -0.000000    -0.000000    -1.000000     0.250000     0.750000     0.500000
   11    -1.000000   180.000000    -0.000000    -0.000000    -1.000000     0.250000     0.750000     0.500000
   12     1.000000    90.000000    -0.000000     0.000000     1.000000     0.250000     0.750000     0.500000
   13     1.000000   180.000000     0.000000    -1.000000     0.000000     0.250000     0.750000     0.500000
   14    -1.000000   180.000000     0.707107     0.707107    -0.000000     0.250000     0.750000     0.500000
   15     1.000000   180.000000     1.000000     0.000000     0.000000     0.250000     0.750000     0.500000
   16    -1.000000   180.000000     0.707107    -0.707107     0.000000     0.250000     0.750000     0.500000
 
 Subroutine IBZKPT returns following result:
 ===========================================
 
 Found     28 irreducible k-points:
 
 Following reciprocal coordinates:
            Coordinates               Weight
  0.083333  0.083333  0.083333    128.000000
  0.250000  0.083333  0.083333    256.000000
  0.416667  0.083333  0.083333    128.000000
 -0.083333  0.083333  0.083333     64.000000
  0.250000  0.250000  0.083333    128.000000
  0.416667  0.250000  0.083333    256.000000
 -0.416667  0.250000  0.083333    128.000000
 -0.250000  0.250000  0.083333    128.000000
 -0.083333  0.250000  0.083333    128.000000
  0.416667  0.416667  0.083333     64.000000
 -0.416667  0.416667  0.083333    128.000000
 -0.250000  0.416667  0.083333    256.000000
 -0.083333  0.416667  0.083333    128.000000
 -0.416667 -0.416667  0.083333    128.000000
 -0.250000 -0.416667  0.083333    256.000000
 -0.083333 -0.416667  0.083333    128.000000
 -0.250000 -0.250000  0.083333    128.000000
 -0.083333 -0.250000  0.083333    128.000000
 -0.083333 -0.083333  0.083333     32.000000
  0.250000  0.250000  0.250000     32.000000
 -0.250000  0.250000  0.250000     64.000000
 -0.416667  0.416667  0.250000    128.000000
 -0.250000  0.416667  0.250000    128.000000
 -0.416667 -0.416667  0.250000    128.000000
 -0.250000 -0.416667  0.250000    128.000000
 -0.250000 -0.250000  0.250000     32.000000
 -0.416667  0.416667  0.416667     64.000000
 -0.416667 -0.416667  0.416667     32.000000
 
 Following cartesian coordinates:
            Coordinates               Weight
  0.034014  0.034014  0.065411    128.000000
  0.034014  0.068027  0.130822    256.000000
  0.034014  0.102041  0.196232    128.000000
  0.034014  0.000000 -0.000000     64.000000
  0.068027  0.068027  0.196232    128.000000
  0.068027  0.102041  0.261643    256.000000
  0.068027 -0.068027 -0.065411    128.000000
  0.068027 -0.034014  0.000000    128.000000
  0.068027  0.000000  0.065411    128.000000
  0.102041  0.102041  0.327054     64.000000
  0.102041 -0.068027 -0.000000    128.000000
  0.102041 -0.034014  0.065411    256.000000
  0.102041  0.000000  0.130822    128.000000
 -0.068027 -0.068027 -0.327054    128.000000
 -0.068027 -0.034014 -0.261643    256.000000
 -0.068027  0.000000 -0.196232    128.000000
 -0.034014 -0.034014 -0.196232    128.000000
 -0.034014  0.000000 -0.130822    128.000000
 -0.000000  0.000000 -0.065411     32.000000
  0.102041  0.102041  0.196232     32.000000
  0.102041  0.000000  0.000000     64.000000
  0.136054 -0.034014 -0.000000    128.000000
  0.136054  0.000000  0.065411    128.000000
 -0.034014 -0.034014 -0.327054    128.000000
 -0.034014  0.000000 -0.261643    128.000000
 -0.000000  0.000000 -0.196232     32.000000
  0.170068  0.000000 -0.000000     64.000000
  0.000000  0.000000 -0.327054     32.000000
 


--------------------------------------------------------------------------------------------------------




 Dimension of arrays:
   k-points           NKPTS =     28   k-points in BZ     NKDIM =     28   number of bands    NBANDS=      8
   number of dos      NEDOS =    301   number of ions     NIONS =      2
   non local maximal  LDIM  =      4   non local SUM 2l+1 LMDIM =      8
   total plane-waves  NPLWV =   5832
   max r-space proj   IRMAX =      1   max aug-charges    IRDMAX=   6573
   dimension x,y,z NGX =    18 NGY =   18 NGZ =   18
   dimension x,y,z NGXF=    36 NGYF=   36 NGZF=   36
   support grid    NGXF=    36 NGYF=   36 NGZF=   36
   ions per type =               2
   NGX,Y,Z   is equivalent  to a cutoff of   8.11,  8.11,  8.11 a.u.
   NGXF,Y,Z  is equivalent  to a cutoff of  16.21, 16.21, 16.21 a.u.

 SYSTEM =  unknown system                          
 POSCAR =  Si2                                     

 Startparameter for this run:
   NWRITE =      2    write-flag & timer
   PREC   = normal    normal or accurate (medium, high low for compatibility)
   ISTART =      0    job   : 0-new  1-cont  2-samecut
   ICHARG =      2    charge: 1-file 2-atom 10-const
   ISPIN  =      1    spin polarized calculation?
   LNONCOLLINEAR =      F non collinear calculations
   LSORBIT =      F    spin-orbit coupling
   INIWAV =      1    electr: 0-lowe 1-rand  2-diag
   LASPH  =      F    aspherical Exc in radial PAW
   METAGGA=      F    non-selfconsistent MetaGGA calc.

 Electronic Relaxation 1
   ENCUT  =  350.0 eV  25.72 Ry    5.07 a.u.   5.63  5.63  5.63*2*pi/ulx,y,z
   ENINI  =  350.0     initial cutoff
   ENAUG  =  322.1 eV  augmentation charge cutoff
   NELM   =     60;   NELMIN=  2; NELMDL= -5     # of ELM steps 
   EDIFF  = 0.4E-03   stopping-criterion for ELM
   LREAL  =      F    real-space projection
   NLSPLINE    = F    spline interpolate recip. space projectors
   LCOMPAT=      F    compatible to vasp.4.4
   GGA_COMPAT  = T    GGA compatible to vasp.4.4-vasp.4.6
   LMAXPAW     = -100 max onsite density
   LMAXMIX     =    2 max onsite mixed and CHGCAR
   VOSKOWN=      0    Vosko Wilk Nusair interpolation
   ROPT   =    0.00000
 Ionic relaxation
   EDIFFG = -.1E-01   stopping-criterion for IOM
   NSW    =     15    number of steps for IOM
   NBLOCK =      1;   KBLOCK =     15    inner block; outer block 
   IBRION =      2    ionic relax: 0-MD 1-quasi-New 2-CG
   NFREE  =      1    steps in history (QN), initial steepest desc. (CG)
   ISIF   =      3    stress and relaxation
   IWAVPR =     11    prediction:  0-non 1-charg 2-wave 3-comb
   ISYM   =      2    0-nonsym 1-usesym 2-fastsym
   LCORR  =      T    Harris-Foulkes like correction to forces

   POTIM  = 0.5000    time-step for ionic-motion
   TEIN   =    0.0    initial temperature
   TEBEG  =    0.0;   TEEND  =   0.0 temperature during run
   SMASS  =  -3.00    Nose mass-parameter (am)
   estimated Nose-frequenzy (Omega)   =  0.10E-29 period in steps =****** mass=  -0.311E-27a.u.
   SCALEE = 1.0000    scale energy and forces
   NPACO  =    256;   APACO  = 16.0  distance and # of slots for P.C.
   PSTRESS=    0.0 pullay stress

  Mass of Ions in am
   POMASS =  28.09
  Ionic Valenz
   ZVAL   =   4.00
  Atomic Wigner-Seitz radii
   RWIGS  =  -1.00
  virtual crystal weights 
   VCA    =   1.00
   NELECT =       8.0000    total number of electrons
   NUPDOWN=      -1.0000    fix difference up-down

 DOS related values:
   EMIN   =  10.00;   EMAX   =-10.00  energy-range for DOS
   EFERMI =   0.00
   ISMEAR =     0;   SIGMA  =   0.20  broadening in eV -4-tet -1-fermi 0-gaus

 Electronic relaxation 2 (details)
   IALGO  =     38    algorithm
   LDIAG  =      T    sub-space diagonalisation (order eigenvalues)
   LSUBROT=      F    optimize rotation matrix (better conditioning)
   TURBO    =      0    0=normal 1=particle mesh
   IRESTART =      0    0=no restart 2=restart with 2 vectors
   NREBOOT  =      0    no. of reboots
   NMIN     =      0    reboot dimension
   EREF     =   0.00    reference energy to select bands
   IMIX   =      4    mixing-type and parameters
     AMIX     =   0.40;   BMIX     =  1.00
     AMIX_MAG =   1.60;   BMIX_MAG =  1.00
     AMIN     =   0.10
     WC   =   100.;   INIMIX=   1;  MIXPRE=   1;  MAXMIX= -45

 Intra band minimization:
   WEIMIN = 0.0010     energy-eigenvalue tresh-hold
   EBREAK =  0.13E-04  absolut break condition
   DEPER  =   0.30     relativ break condition  

   TIME   =   0.40     timestep for ELM

  volume/ion in A,a.u.               =      15.29       103.21
  Fermi-wavevector in a.u.,A,eV,Ry     =   1.046930  1.978411 14.912834  1.096062
  Thomas-Fermi vector in A             =   2.181789
 
 Write flags
   LWAVE        =      T    write WAVECAR
   LDOWNSAMPLE  =      F    k-point downsampling of WAVECAR
   LCHARG       =      T    write CHGCAR
   LVTOT        =      F    write LOCPOT, total local potential
   LVHAR        =      F    write LOCPOT, Hartree potential only
   LELF         =      F    write electronic localiz. function (ELF)
   LORBIT       =      0    0 simple, 1 ext, 2 COOP (PROOUT), +10 PAW based schemes


 Dipole corrections
   LMONO  =      F    monopole corrections only (constant potential shift)
   LDIPOL =      F    correct potential (dipole corrections)
   IDIPOL =      0    1-x, 2-y, 3-z, 4-all directions 
   EPSILON=  1.0000000 bulk dielectric constant

 Exchange correlation treatment:
   GGA     =    --    GGA type
   LEXCH   =     8    internal setting for exchange type
   VOSKOWN=      0    Vosko Wilk Nusair interpolation
   LHFCALC =     F    Hartree Fock is set to
   LHFONE  =     F    Hartree Fock one center treatment
   AEXX    =    0.0000 exact exchange contribution

 Linear response parameters
   LEPSILON=     F    determine dielectric tensor
   LRPA    =     F    only Hartree local field effects (RPA)
   LNABLA  =     F    use nabla operator in PAW spheres
   LVEL    =     F    velocity operator in full k-point grid
   LINTERFAST=   F  fast interpolation
   KINTER  =     0    interpolate to denser k-point grid
   CSHIFT  =0.1000    complex shift for real part using Kramers Kronig
   OMEGAMAX=  -1.0    maximum frequency
   DEG_THRESHOLD= 0.2000000E-02 threshold for treating states as degnerate
   RTIME   =   -0.100 relaxation time in fs
  (WPLASMAI=    0.000 imaginary part of plasma frequency in eV, 0.658/RTIME)
   DFIELD  = 0.0000000 0.0000000 0.0000000 field for delta impulse in time
 
 Orbital magnetization related:
   ORBITALMAG=     F  switch on orbital magnetization
   LCHIMAG   =     F  perturbation theory with respect to B field
   DQ        =  0.001000  dq finite difference perturbation B field
   LLRAUG    =     F  two centre corrections for induced B field



--------------------------------------------------------------------------------------------------------


 conjugate gradient relaxation of ions
 charge density and potential will be updated during run
 non-spin polarized calculation
 Variant of blocked Davidson
 Davidson routine will perform the subspace rotation
 perform sub-space diagonalisation
    after iterative eigenvector-optimisation
 modified Broyden-mixing scheme, WC =      100.0
 initial mixing is a Kerker type mixing with AMIX =  0.4000 and BMIX =      1.0000
 Hartree-type preconditioning will be used
 using additional bands            4
 reciprocal scheme for non local part
 use partial core corrections
 calculate Harris-corrections to forces 
   (improved forces if not selfconsistent)
 use gradient corrections 
 use of overlap-Matrix (Vanderbilt PP)
 Gauss-broadening in eV      SIGMA  =   0.20


--------------------------------------------------------------------------------------------------------


  energy-cutoff  :      350.00
  volume of cell :       30.59
      direct lattice vectors                 reciprocal lattice vectors
    -2.450000000  2.450000000  1.274000000     0.000000000  0.204081633  0.392464678
     2.450000000 -2.450000000  1.274000000     0.204081633  0.000000000  0.392464678
     2.450000000  2.450000000 -1.274000000     0.204081633  0.204081633 -0.000000000

  length of vectors
     3.691622408  3.691622408  3.691622408     0.442354876  0.442354876  0.288615013


 
 k-points in units of 2pi/SCALE and weight: Automatic kpoint scheme                 
   0.03401361  0.03401361  0.06541078       0.037
   0.03401361  0.06802721  0.13082156       0.074
   0.03401361  0.10204082  0.19623234       0.037
   0.03401361 -0.00000000 -0.00000000       0.019
   0.06802721  0.06802721  0.19623234       0.037
   0.06802721  0.10204082  0.26164312       0.074
   0.06802721 -0.06802721 -0.06541078       0.037
   0.06802721 -0.03401361 -0.00000000       0.037
   0.06802721  0.00000000  0.06541078       0.037
   0.10204082  0.10204082  0.32705390       0.019
   0.10204082 -0.06802721 -0.00000000       0.037
   0.10204082 -0.03401361  0.06541078       0.074
   0.10204082  0.00000000  0.13082156       0.037
  -0.06802721 -0.06802721 -0.32705390       0.037
  -0.06802721 -0.03401361 -0.26164312       0.074
  -0.06802721 -0.00000000 -0.19623234       0.037
  -0.03401361 -0.03401361 -0.19623234       0.037
  -0.03401361 -0.00000000 -0.13082156       0.037
   0.00000000  0.00000000 -0.06541078       0.009
   0.10204082  0.10204082  0.19623234       0.009
   0.10204082  0.00000000 -0.00000000       0.019
   0.13605442 -0.03401361 -0.00000000       0.037
   0.13605442  0.00000000  0.06541078       0.037
  -0.03401361 -0.03401361 -0.32705390       0.037
  -0.03401361  0.00000000 -0.26164312       0.037
   0.00000000  0.00000000 -0.19623234       0.009
   0.17006803  0.00000000 -0.00000000       0.019
  -0.00000000 -0.00000000 -0.32705390       0.009
 
 k-points in reciprocal lattice and weights: Automatic kpoint scheme                 
   0.08333333  0.08333333  0.08333333       0.037
   0.25000000  0.08333333  0.08333333       0.074
   0.41666667  0.08333333  0.08333333       0.037
  -0.08333333  0.08333333  0.08333333       0.019
   0.25000000  0.25000000  0.08333333       0.037
   0.41666667  0.25000000  0.08333333       0.074
  -0.41666667  0.25000000  0.08333333       0.037
  -0.25000000  0.25000000  0.08333333       0.037
  -0.08333333  0.25000000  0.08333333       0.037
   0.41666667  0.41666667  0.08333333       0.019
  -0.41666667  0.41666667  0.08333333       0.037
  -0.25000000  0.41666667  0.08333333       0.074
  -0.08333333  0.41666667  0.08333333       0.037
  -0.41666667 -0.41666667  0.08333333       0.037
  -0.25000000 -0.41666667  0.08333333       0.074
  -0.08333333 -0.41666667  0.08333333       0.037
  -0.25000000 -0.25000000  0.08333333       0.037
  -0.08333333 -0.25000000  0.08333333       0.037
  -0.08333333 -0.08333333  0.08333333       0.009
   0.25000000  0.25000000  0.25000000       0.009
  -0.25000000  0.25000000  0.25000000       0.019
  -0.41666667  0.41666667  0.25000000       0.037
  -0.25000000  0.41666667  0.25000000       0.037
  -0.41666667 -0.41666667  0.25000000       0.037
  -0.25000000 -0.41666667  0.25000000       0.037
  -0.25000000 -0.25000000  0.25000000       0.009
  -0.41666667  0.41666667  0.41666667       0.019
  -0.41666667 -0.41666667  0.41666667       0.009
 
 position of ions in fractional coordinates (direct lattice) 
   0.25000000  0.75000000  0.50000000
   0.00000000  0.00000000  0.00000000
 
 position of ions in cartesian coordinates  (Angst):
   2.45000000  0.00000000  0.63700000
   0.00000000  0.00000000  0.00000000
 


--------------------------------------------------------------------------------------------------------


 k-point  1 :   0.0833 0.0833 0.0833  plane waves:     461
 k-point  2 :   0.2500 0.0833 0.0833  plane waves:     463
 k-point  3 :   0.4167 0.0833 0.0833  plane waves:     460
 k-point  4 :  -0.0833 0.0833 0.0833  plane waves:     453
 k-point  5 :   0.2500 0.2500 0.0833  plane waves:     462
 k-point  6 :   0.4167 0.2500 0.0833  plane waves:     457
 k-point  7 :  -0.4167 0.2500 0.0833  plane waves:     452
 k-point  8 :  -0.2500 0.2500 0.0833  plane waves:     458
 k-point  9 :  -0.0833 0.2500 0.0833  plane waves:     456
 k-point 10 :   0.4167 0.4167 0.0833  plane waves:     452
 k-point 11 :  -0.4167 0.4167 0.0833  plane waves:     446
 k-point 12 :  -0.2500 0.4167 0.0833  plane waves:     449
 k-point 13 :  -0.0833 0.4167 0.0833  plane waves:     451
 k-point 14 :  -0.4167-0.4167 0.0833  plane waves:     445
 k-point 15 :  -0.2500-0.4167 0.0833  plane waves:     452
 k-point 16 :  -0.0833-0.4167 0.0833  plane waves:     459
 k-point 17 :  -0.2500-0.2500 0.0833  plane waves:     458
 k-point 18 :  -0.0833-0.2500 0.0833  plane waves:     462
 k-point 19 :  -0.0833-0.0833 0.0833  plane waves:     464
 k-point 20 :   0.2500 0.2500 0.2500  plane waves:     464
 k-point 21 :  -0.2500 0.2500 0.2500  plane waves:     455
 k-point 22 :  -0.4167 0.4167 0.2500  plane waves:     449
 k-point 23 :  -0.2500 0.4167 0.2500  plane waves:     453
 k-point 24 :  -0.4167-0.4167 0.2500  plane waves:     451
 k-point 25 :  -0.2500-0.4167 0.2500  plane waves:     455
 k-point 26 :  -0.2500-0.2500 0.2500  plane waves:     460
 k-point 27 :  -0.4167 0.4167 0.4167  plane waves:     456
 k-point 28 :  -0.4167-0.4167 0.4167  plane waves:     464

 maximum and minimum number of plane-waves per node :       464      445

 maximum number of plane-waves:       464
 maximum index in each direction: 
   IXMAX=    6   IYMAX=    6   IZMAX=    5
   IXMIN=   -6   IYMIN=   -6   IZMIN=   -6


 serial   3D FFT for wavefunctions
 parallel 3D FFT for charge:
    minimum data exchange during FFTs selected (reduces bandwidth)


 total amount of memory used by VASP MPI-rank0    31875. kBytes
=======================================================================

   base      :      30000. kBytes
   nonl-proj :        846. kBytes
   fftplans  :        247. kBytes
   grid      :        561. kBytes
   one-center:          6. kBytes
   wavefun   :        215. kBytes
 
     INWAV:  cpu time    0.0000: real time    0.0003
 Broyden mixing: mesh for mixing (old mesh)
   NGX = 11   NGY = 11   NGZ = 11
  (NGX  = 36   NGY  = 36   NGZ  = 36)
  gives a total of   1331 points

 initial charge density was supplied:
 charge density of overlapping atoms calculated
 number of electron       8.0000000 magnetization 
 keeping initial charge density in first step


--------------------------------------------------------------------------------------------------------


 Maximum index for augmentation-charges          911 (set IRDMAX)


--------------------------------------------------------------------------------------------------------


 First call to EWALD:  gamma=   0.567
 Maximum number of real-space cells 4x 4x 3
 Maximum number of reciprocal cells 3x 3x 3

    FEWALD:  cpu time    0.0040: real time    0.0070


--------------------------------------- Iteration      1(   1)  ---------------------------------------


    POTLOK:  cpu time    0.0320: real time    0.0422
    SETDIJ:  cpu time    0.0120: real time    0.0085
     EDDAV:  cpu time    0.3360: real time    0.3415
       DOS:  cpu time    0.0000: real time    0.0033
    --------------------------------------------
      LOOP:  cpu time    0.3800: real time    0.3969

 eigenvalue-minimisations  :   448
 total energy-change (2. order) : 0.2054053E+01  (-0.2760476E+03)
 number of electron       8.0000000 magnetization 
 augmentation part        8.0000000 magnetization 

 Free energy of the ion-electron system (eV)
  ---------------------------------------------------
  alpha Z        PSCENC =         4.40202223
  Ewald energy   TEWEN  =      -265.18101312
  -Hartree energ DENC   =        -2.30415367
  -exchange      EXHF   =         0.00000000
  -V(xc)+E(xc)   XCENC  =       -17.81549222
  PAW double counting   =        65.95520812      -30.76852678
  entropy T*S    EENTRO =        -0.01739092
  eigenvalues    EBANDS =        41.65214571
  atomic energy  EATOM  =       206.13125414
  Solvation  Ediel_sol  =         0.00000000
  ---------------------------------------------------
  free energy    TOTEN  =         2.05405349 eV

  energy without entropy =        2.07144441  energy(sigma->0) =        2.06274895


--------------------------------------------------------------------------------------------------------




--------------------------------------- Iteration      1(   2)  ---------------------------------------


     EDDAV:  cpu time    0.4720: real time    0.4857
       DOS:  cpu time    0.0040: real time    0.0024
    --------------------------------------------
      LOOP:  cpu time    0.4760: real time    0.4876

 eigenvalue-minimisations  :   640
 total energy-change (2. order) :-0.1218528E+02  (-0.1180084E+02)
 number of electron       8.0000000 magnetization 
 augmentation part        8.0000000 magnetization 

 Free energy of the ion-electron system (eV)
  ---------------------------------------------------
  alpha Z        PSCENC =         4.40202223
  Ewald energy   TEWEN  =      -265.18101312
  -Hartree energ DENC   =        -2.30415367
  -exchange      EXHF   =         0.00000000
  -V(xc)+E(xc)   XCENC  =       -17.81549222
  PAW double counting   =        65.95520812      -30.76852678
  entropy T*S    EENTRO =        -0.01177432
  eigenvalues    EBANDS =        29.46124659
  atomic energy  EATOM  =       206.13125414
  Solvation  Ediel_sol  =         0.00000000
  ---------------------------------------------------
  free energy    TOTEN  =       -10.13122902 eV

  energy without entropy =      -10.11945471  energy(sigma->0) =      -10.12534187


--------------------------------------------------------------------------------------------------------




--------------------------------------- Iteration      1(   3)  ---------------------------------------


     EDDAV:  cpu time    0.4560: real time    0.4675
       DOS:  cpu time    0.0000: real time    0.0022
    --------------------------------------------
      LOOP:  cpu time    0.4600: real time    0.4695

 eigenvalue-minimisations  :   608
 total energy-change (2. order) :-0.1727142E+00  (-0.1723531E+00)
 number of electron       8.0000000 magnetization 
 augmentation part        8.0000000 magnetization 

 Free energy of the ion-electron system (eV)
  ---------------------------------------------------
  alpha Z        PSCENC =         4.40202223
  Ewald energy   TEWEN  =      -265.18101312
  -Hartree energ DENC   =        -2.30415367
  -exchange      EXHF   =         0.00000000
  -V(xc)+E(xc)   XCENC  =       -17.81549222
  PAW double counting   =        65.95520812      -30.76852678
  entropy T*S    EENTRO =        -0.01132556
  eigenvalues    EBANDS =        29.28808361
  atomic energy  EATOM  =       206.13125414
  Solvation  Ediel_sol  =         0.00000000
  ---------------------------------------------------
  free energy    TOTEN  =       -10.30394324 eV

  energy without entropy =      -10.29261768  energy(sigma->0) =      -10.29828046


--------------------------------------------------------------------------------------------------------




--------------------------------------- Iteration      1(   4)  ---------------------------------------


     EDDAV:  cpu time    0.5000: real time    0.5081
       DOS:  cpu time    0.0000: real time    0.0024
    --------------------------------------------
      LOOP:  cpu time    0.5000: real time    0.5104

 eigenvalue-minimisations  :   672
 total energy-change (2. order) :-0.5054702E-03  (-0.5054632E-03)
 number of electron       8.0000000 magnetization 
 augmentation part        8.0000000 magnetization 

 Free energy of the ion-electron system (eV)
  ---------------------------------------------------
  alpha Z        PSCENC =         4.40202223
  Ewald energy   TEWEN  =      -265.18101312
  -Hartree energ DENC   =        -2.30415367
  -exchange      EXHF   =         0.00000000
  -V(xc)+E(xc)   XCENC  =       -17.81549222
  PAW double counting   =        65.95520812      -30.76852678
  entropy T*S    EENTRO =        -0.01132907
  eigenvalues    EBANDS =        29.28758165
  atomic energy  EATOM  =       206.13125414
  Solvation  Ediel_sol  =         0.00000000
  ---------------------------------------------------
  free energy    TOTEN  =       -10.30444871 eV

  energy without entropy =      -10.29311964  energy(sigma->0) =      -10.29878418


--------------------------------------------------------------------------------------------------------




--------------------------------------- Iteration      1(   5)  ---------------------------------------


     EDDAV:  cpu time    0.4640: real time    0.4699
       DOS:  cpu time    0.0000: real time    0.0023
    CHARGE:  cpu time    0.0360: real time    0.0352
    MIXING:  cpu time    0.0040: real time    0.0026
    --------------------------------------------
      LOOP:  cpu time    0.5000: real time    0.5102

 eigenvalue-minimisations  :   616
 total energy-change (2. order) :-0.1677008E-05  (-0.1676726E-05)
 number of electron       7.9999995 magnetization 
 augmentation part       -0.4680385 magnetization 

 Broyden mixing:
  rms(total) = 0.15158E+00    rms(broyden)= 0.15158E+00
  rms(prec ) = 0.33878E+00
  weight for this iteration     100.00

 Free energy of the ion-electron system (eV)
  ---------------------------------------------------
  alpha Z        PSCENC =         4.40202223
  Ewald energy   TEWEN  =      -265.18101312
  -Hartree energ DENC   =        -2.30415367
  -exchange      EXHF   =         0.00000000
  -V(xc)+E(xc)   XCENC  =       -17.81549222
  PAW double counting   =        65.95520812      -30.76852678
  entropy T*S    EENTRO =        -0.01132907
  eigenvalues    EBANDS =        29.28757997
  atomic energy  EATOM  =       206.13125414
  Solvation  Ediel_sol  =         0.00000000
  ---------------------------------------------------
  free energy    TOTEN  =       -10.30445039 eV

  energy without entropy =      -10.29312132  energy(sigma->0) =      -10.29878586


--------------------------------------------------------------------------------------------------------




--------------------------------------- Iteration      1(   6)  ---------------------------------------


    POTLOK:  cpu time    0.0240: real time    0.0378
    SETDIJ:  cpu time    0.0080: real time    0.0080
     EDDAV:  cpu time    0.3880: real time    0.3888
       DOS:  cpu time    0.0040: real time    0.0024
    CHARGE:  cpu time    0.0320: real time    0.0334
    MIXING:  cpu time    0.0040: real time    0.0021
    --------------------------------------------
      LOOP:  cpu time    0.4600: real time    0.4725

 eigenvalue-minimisations  :   528
 total energy-change (2. order) : 0.4482323E-02  (-0.1808233E-03)
 number of electron       7.9999995 magnetization 
 augmentation part       -0.4696360 magnetization 

 Broyden mixing:
  rms(total) = 0.94888E-01    rms(broyden)= 0.94888E-01
  rms(prec ) = 0.21230E+00
  weight for this iteration     100.00

 eigenvalues of (default mixing * dielectric matrix)
  average eigenvalue GAMMA=   2.6693
  2.6693

 Free energy of the ion-electron system (eV)
  ---------------------------------------------------
  alpha Z        PSCENC =         4.40202223
  Ewald energy   TEWEN  =      -265.18101312
  -Hartree energ DENC   =        -2.33196229
  -exchange      EXHF   =         0.00000000
  -V(xc)+E(xc)   XCENC  =       -17.73466665
  PAW double counting   =        67.65421627      -32.50368229
  entropy T*S    EENTRO =        -0.01134601
  eigenvalues    EBANDS =        29.27520964
  atomic energy  EATOM  =       206.13125414
  Solvation  Ediel_sol  =         0.00000000
  ---------------------------------------------------
  free energy    TOTEN  =       -10.29996807 eV

  energy without entropy =      -10.28862205  energy(sigma->0) =      -10.29429506


--------------------------------------------------------------------------------------------------------




--------------------------------------- Iteration      1(   7)  ---------------------------------------


    POTLOK:  cpu time    0.0240: real time    0.0366
    SETDIJ:  cpu time    0.0080: real time    0.0082
     EDDAV:  cpu time    0.3840: real time    0.3841
       DOS:  cpu time    0.0040: real time    0.0023
    CHARGE:  cpu time    0.0320: real time    0.0334
    MIXING:  cpu time    0.0000: real time    0.0018
    --------------------------------------------
      LOOP:  cpu time    0.4520: real time    0.4676

 eigenvalue-minimisations  :   520
 total energy-change (2. order) : 0.3801194E-02  (-0.5349508E-03)
 number of electron       7.9999995 magnetization 
 augmentation part       -0.4726507 magnetization 

 Broyden mixing:
  rms(total) = 0.33224E-02    rms(broyden)= 0.33220E-02
  rms(prec ) = 0.84402E-02
  weight for this iteration     100.00

 eigenvalues of (default mixing * dielectric matrix)
  average eigenvalue GAMMA=   2.5839
  2.5839  2.5839

 Free energy of the ion-electron system (eV)
  ---------------------------------------------------
  alpha Z        PSCENC =         4.40202223
  Ewald energy   TEWEN  =      -265.18101312
  -Hartree energ DENC   =        -2.47631536
  -exchange      EXHF   =         0.00000000
  -V(xc)+E(xc)   XCENC  =       -17.58126423
  PAW double counting   =        70.36342974      -35.27463959
  entropy T*S    EENTRO =        -0.01137141
  eigenvalues    EBANDS =        29.33173073
  atomic energy  EATOM  =       206.13125414
  Solvation  Ediel_sol  =         0.00000000
  ---------------------------------------------------
  free energy    TOTEN  =       -10.29616687 eV

  energy without entropy =      -10.28479546  energy(sigma->0) =      -10.29048117


--------------------------------------------------------------------------------------------------------




--------------------------------------- Iteration      1(   8)  ---------------------------------------


    POTLOK:  cpu time    0.0280: real time    0.0409
    SETDIJ:  cpu time    0.0080: real time    0.0078
     EDDAV:  cpu time    0.2560: real time    0.2579
       DOS:  cpu time    0.0040: real time    0.0022
    --------------------------------------------
      LOOP:  cpu time    0.2960: real time    0.3079

 eigenvalue-minimisations  :   304
 total energy-change (2. order) : 0.1333408E-04  (-0.7770841E-05)
 number of electron       7.9999995 magnetization 
 augmentation part       -0.4726507 magnetization 

 Free energy of the ion-electron system (eV)
  ---------------------------------------------------
  alpha Z        PSCENC =         4.40202223
  Ewald energy   TEWEN  =      -265.18101312
  -Hartree energ DENC   =        -2.49467995
  -exchange      EXHF   =         0.00000000
  -V(xc)+E(xc)   XCENC  =       -17.58204981
  PAW double counting   =        70.16762176      -35.07905677
  entropy T*S    EENTRO =        -0.01136934
  eigenvalues    EBANDS =        29.35111730
  atomic energy  EATOM  =       206.13125414
  Solvation  Ediel_sol  =         0.00000000
  ---------------------------------------------------
  free energy    TOTEN  =       -10.29615354 eV

  energy without entropy =      -10.28478420  energy(sigma->0) =      -10.29046887


--------------------------------------------------------------------------------------------------------




 average (electrostatic) potential at core
  the test charge radii are     0.9892
  (the norm of the test charge is              1.0000)
       1 -80.5527       2 -80.5527
 
 
 
 E-fermi :   9.1523     XC(G=0): -10.8919     alpha+bet :-15.6819


 k-point     1 :       0.0833    0.0833    0.0833
  band No.  band energies     occupation 
      1      -3.6680      2.00000
      2       3.9089      2.00000
      3       7.1230      2.00000
      4       8.6253      1.99981
      5      12.8076      0.00000
      6      13.7016      0.00000
      7      13.9401      0.00000
      8      15.7752      0.00000

 k-point     2 :       0.2500    0.0833    0.0833
  band No.  band energies     occupation 
      1      -1.3431      2.00000
      2       4.2812      2.00000
      3       7.4911      2.00000
      4       7.9696      2.00000
      5       9.7224      0.00006
      6      12.2943      0.00000
      7      13.5416      0.00000
      8      14.3574      0.00000

 k-point     3 :       0.4167    0.0833    0.0833
  band No.  band energies     occupation 
      1       2.1899      2.00000
      2       2.7364      2.00000
      3       6.0265      2.00000
      4       6.1193      2.00000
      5       9.5700      0.00314
      6      11.3326      0.00000
      7      13.6597      0.00000
      8      14.4825      0.00000

 k-point     4 :      -0.0833    0.0833    0.0833
  band No.  band energies     occupation 
      1      -4.4506      2.00000
      2       4.5059      2.00000
      3       5.6928      2.00000
      4       8.2440      2.00000
      5      11.4349      0.00000
      6      14.3062      0.00000
      7      17.5002      0.00000
      8      18.0832      0.00000

 k-point     5 :       0.2500    0.2500    0.0833
  band No.  band energies     occupation 
      1       2.0951      2.00000
      2       3.9931      2.00000
      3       4.0962      2.00000
      4       5.8472      2.00000
      5      10.9747      0.00000
      6      12.1838      0.00000
      7      13.7855      0.00000
      8      14.2944      0.00000

 k-point     6 :       0.4167    0.2500    0.0833
  band No.  band energies     occupation 
      1      -0.0530      2.00000
      2       1.8483      2.00000
      3       6.9938      2.00000
      4       8.3017      2.00000
      5       9.9518      0.00000
      6      11.7640      0.00000
      7      13.5465      0.00000
      8      15.1934      0.00000

 k-point     7 :      -0.4167    0.2500    0.0833
  band No.  band energies     occupation 
      1      -2.6835      2.00000
      2       1.1679      2.00000
      3       8.0157      2.00000
      4       9.8253      0.00000
      5      11.4306      0.00000
      6      12.8977      0.00000
      7      14.0701      0.00000
      8      14.3171      0.00000

 k-point     8 :      -0.2500    0.2500    0.0833
  band No.  band energies     occupation 
      1      -3.7911      2.00000
      2       1.9449      2.00000
      3       5.9570      2.00000
      4       9.8271      0.00000
      5      11.4355      0.00000
      6      14.4634      0.00000
      7      15.3188      0.00000
      8      18.8900      0.00000

 k-point     9 :      -0.0833    0.2500    0.0833
  band No.  band energies     occupation 
      1      -3.3397      2.00000
      2       3.6533      2.00000
      3       5.1750      2.00000
      4      10.6723      0.00000
      5      11.7932      0.00000
      6      13.2300      0.00000
      7      13.9833      0.00000
      8      15.9335      0.00000

 k-point    10 :       0.4167    0.4167    0.0833
  band No.  band energies     occupation 
      1      -1.0600      2.00000
      2      -1.0600      2.00000
      3       9.4686      0.02531
      4       9.4686      0.02531
      5      11.3488      0.00000
      6      11.3488      0.00000
      7      13.7081      0.00000
      8      13.7081      0.00000

 k-point    11 :      -0.4167    0.4167    0.0833
  band No.  band energies     occupation 
      1      -2.4819      2.00000
      2      -0.5481      2.00000
      3       7.1740      2.00000
      4       9.0165      1.66295
      5      11.2357      0.00000
      6      13.0653      0.00000
      7      18.1995      0.00000
      8      18.5215      0.00000

 k-point    12 :      -0.2500    0.4167    0.0833
  band No.  band energies     occupation 
      1      -2.3605      2.00000
      2       1.4301      2.00000
      3       5.5688      2.00000
      4       9.1691      0.90522
      5      11.3580      0.00000
      6      13.4592      0.00000
      7      15.5202      0.00000
      8      16.7224      0.00000

 k-point    13 :      -0.0833    0.4167    0.0833
  band No.  band energies     occupation 
      1      -0.6995      2.00000
      2       4.2631      2.00000
      3       5.8772      2.00000
      4       6.4716      2.00000
      5      10.0673      0.00000
      6      12.2924      0.00000
      7      13.3191      0.00000
      8      15.3828      0.00000

 k-point    14 :      -0.4167   -0.4167    0.0833
  band No.  band energies     occupation 
      1      -0.7527      2.00000
      2      -0.7478      2.00000
      3       7.0542      2.00000
      4       7.0730      2.00000
      5      11.2653      0.00000
      6      14.4719      0.00000
      7      15.2721      0.00000
      8      15.3658      0.00000

 k-point    15 :      -0.2500   -0.4167    0.0833
  band No.  band energies     occupation 
      1       0.5710      2.00000
      2       2.4075      2.00000
      3       5.8052      2.00000
      4       6.5554      2.00000
      5       8.2332      2.00000
      6      11.8296      0.00000
      7      15.3756      0.00000
      8      16.9660      0.00000

 k-point    16 :      -0.0833   -0.4167    0.0833
  band No.  band energies     occupation 
      1       1.4729      2.00000
      2       3.4393      2.00000
      3       6.3754      2.00000
      4       7.6043      2.00000
      5       8.1902      2.00000
      6      10.7774      0.00000
      7      11.6282      0.00000
      8      15.6781      0.00000

 k-point    17 :      -0.2500   -0.2500    0.0833
  band No.  band energies     occupation 
      1       1.1676      2.00000
      2       4.8831      2.00000
      3       4.9314      2.00000
      4       7.7305      2.00000
      5       8.7097      1.99825
      6      10.2649      0.00000
      7      12.6276      0.00000
      8      13.4734      0.00000

 k-point    18 :      -0.0833   -0.2500    0.0833
  band No.  band energies     occupation 
      1      -1.9937      2.00000
      2       6.7112      2.00000
      3       7.7168      2.00000
      4       8.4850      2.00000
      5       9.8742      0.00000
      6      11.1287      0.00000
      7      12.3589      0.00000
      8      13.5350      0.00000

 k-point    19 :      -0.0833   -0.0833    0.0833
  band No.  band energies     occupation 
      1      -3.9977      2.00000
      2       6.7527      2.00000
      3       6.8233      2.00000
      4       6.8233      2.00000
      5      11.1343      0.00000
      6      14.4966      0.00000
      7      14.7740      0.00000
      8      16.7111      0.00000

 k-point    20 :       0.2500    0.2500    0.2500
  band No.  band energies     occupation 
      1       3.3983      2.00000
      2       3.3983      2.00000
      3       4.0591      2.00000
      4       4.0591      2.00000
      5      13.2067      0.00000
      6      13.2067      0.00000
      7      15.0223      0.00000
      8      15.0223      0.00000

 k-point    21 :      -0.2500    0.2500    0.2500
  band No.  band energies     occupation 
      1      -3.1383      2.00000
      2       1.9293      2.00000
      3       3.6271      2.00000
      4       8.5371      1.99999
      5      12.8871      0.00000
      6      16.0155      0.00000
      7      17.2448      0.00000
      8      18.2739      0.00000

 k-point    22 :      -0.4167    0.4167    0.2500
  band No.  band energies     occupation 
      1      -1.8479      2.00000
      2       0.0227      2.00000
      3       4.2689      2.00000
      4       6.0861      2.00000
      5      14.7263      0.00000
      6      16.1619      0.00000
      7      17.8173      0.00000
      8      18.1824      0.00000

 k-point    23 :      -0.2500    0.4167    0.2500
  band No.  band energies     occupation 
      1      -1.4014      2.00000
      2       1.7130      2.00000
      3       3.4673      2.00000
      4       6.4983      2.00000
      5      10.8177      0.00000
      6      16.4687      0.00000
      7      17.5086      0.00000
      8      18.3602      0.00000

 k-point    24 :      -0.4167   -0.4167    0.2500
  band No.  band energies     occupation 
      1       0.1346      2.00000
      2       0.1449      2.00000
      3       4.3916      2.00000
      4       4.3944      2.00000
      5      10.5575      0.00000
      6      17.6242      0.00000
      7      18.2219      0.00000
      8      19.0073      0.00000

 k-point    25 :      -0.2500   -0.4167    0.2500
  band No.  band energies     occupation 
      1       1.7673      2.00000
      2       2.9867      2.00000
      3       4.7396      2.00000
      4       5.2497      2.00000
      5       5.9993      2.00000
      6      13.9493      0.00000
      7      15.3293      0.00000
      8      17.2367      0.00000

 k-point    26 :      -0.2500   -0.2500    0.2500
  band No.  band energies     occupation 
      1       0.8528      2.00000
      2       5.7733      2.00000
      3       5.8658      2.00000
      4       7.2629      2.00000
      5       7.2629      2.00000
      6      11.5867      0.00000
      7      12.2467      0.00000
      8      12.2467      0.00000

 k-point    27 :      -0.4167    0.4167    0.4167
  band No.  band energies     occupation 
      1      -0.6295      2.00000
      2       0.6164      2.00000
      3       2.4352      2.00000
      4       3.6632      2.00000
      5      16.1744      0.00000
      6      16.3834      0.00000
      7      19.3820      0.00000
      8      20.4840      0.00000

 k-point    28 :      -0.4167   -0.4167    0.4167
  band No.  band energies     occupation 
      1       1.0486      2.00000
      2       1.0662      2.00000
      3       2.8658      2.00000
      4       2.8658      2.00000
      5      10.2839      0.00000
      6      19.1698      0.00000
      7      20.3037      0.00000
      8      20.3037      0.00000


--------------------------------------------------------------------------------------------------------


 soft charge-density along one line, spin component           1
         0         1         2         3         4         5         6         7         8         9
 total charge-density along one line
 
 pseudopotential strength for first ion, spin component:           1
 18.064  -0.003   0.000  -0.000  -0.000  -0.000   0.000   0.000
 -0.003   0.005  -0.000   0.000   0.000   0.000  -0.000  -0.000
  0.000  -0.000   4.116   0.000   0.000  -0.006  -0.000  -0.000
 -0.000   0.000   0.000   4.117   0.000  -0.000  -0.006  -0.000
 -0.000   0.000   0.000   0.000   4.116  -0.000  -0.000  -0.006
 -0.000   0.000  -0.006  -0.000  -0.000   0.005   0.000   0.000
  0.000  -0.000  -0.000  -0.006  -0.000   0.000   0.005   0.000
  0.000  -0.000  -0.000  -0.000  -0.006   0.000   0.000   0.005
 total augmentation occupancy for first ion, spin component:           1
  1.608  -0.476   0.000   0.000  -0.000   0.000   0.000   0.000
 -0.476   0.881  -0.000   0.000   0.000   0.000   0.000  -0.000
  0.000  -0.000   0.904   0.000  -0.000  -0.475  -0.000   0.000
  0.000   0.000  -0.000   0.859   0.000   0.000  -0.490   0.000
 -0.000  -0.000  -0.000   0.000   0.904   0.000   0.000  -0.475
  0.000  -0.000  -0.475   0.000   0.000   0.330  -0.000  -0.000
  0.000   0.000  -0.000  -0.490   0.000  -0.000   0.363  -0.000
  0.000  -0.000   0.000   0.000  -0.475  -0.000  -0.000   0.330


------------------------ aborting loop because EDIFF is reached ----------------------------------------


    CHARGE:  cpu time    0.0320: real time    0.0321
    FORLOC:  cpu time    0.0040: real time    0.0009
    FORNL :  cpu time    0.0120: real time    0.0146
    STRESS:  cpu time    0.1160: real time    0.1156
    FORCOR:  cpu time    0.0200: real time    0.0209
    FORHAR:  cpu time    0.0040: real time    0.0078
    MIXING:  cpu time    0.0040: real time    0.0014
    OFIELD:  cpu time    0.0000: real time    0.0005

  FORCE on cell =-STRESS in cart. coord.  units (eV):
  Direction    XX          YY          ZZ          XY          YZ          ZX
  --------------------------------------------------------------------------------------
  Alpha Z     4.40202     4.40202     4.40202
  Ewald     -90.96023   -90.96023   -83.26083    -0.00000     0.00000     0.00000
  Hartree     0.55208     0.55208     1.39475    -0.00000    -0.00000    -0.00000
  E(xc)     -25.40525   -25.40525   -25.37235    -0.00000     0.00000     0.00000
  Local     -11.03567   -11.03567   -17.57392    -0.00002    -0.00002    -0.00002
  n-local    76.67064    76.62256    76.53764     1.06956    -0.54221    -0.35542
  augment   -12.06935   -12.06935   -11.93875     0.00002     0.00002     0.00002
  Kinetic    57.33639    58.15239    55.90942     1.97731    -1.11800    -3.33112
  Fock        0.00000     0.00000     0.00000     0.00000     0.00000     0.00000
  -------------------------------------------------------------------------------------
  Total      -0.12540    -0.12540     0.09799    -0.00000     0.00000    -0.00000
  in kB      -6.56839    -6.56839     5.13240    -0.00000     0.00000    -0.00000
  external pressure =       -2.67 kB  Pullay stress =        0.00 kB


 VOLUME and BASIS-vectors are now :
 -----------------------------------------------------------------------------
  energy-cutoff  :      350.00
  volume of cell :       30.59
      direct lattice vectors                 reciprocal lattice vectors
    -2.450000000  2.450000000  1.274000000     0.000000000  0.204081633  0.392464678
     2.450000000 -2.450000000  1.274000000     0.204081633  0.000000000  0.392464678
     2.450000000  2.450000000 -1.274000000     0.204081633  0.204081633 -0.000000000

  length of vectors
     3.691622408  3.691622408  3.691622408     0.442354876  0.442354876  0.288615013


 FORCES acting on ions
    electron-ion (+dipol)            ewald-force                    non-local-force                 convergence-correction
 -----------------------------------------------------------------------------------------------
   -.193E-06 0.193E-06 0.368E-13   0.198E-14 0.156E-15 0.342E-17   -.141E-16 -.717E-17 0.147E-16   -.936E-08 0.936E-08 0.277E-16
   0.193E-06 -.193E-06 -.237E-13   -.185E-14 0.943E-16 0.891E-15   -.228E-16 0.327E-16 -.489E-17   0.936E-08 -.936E-08 0.300E-16
 -----------------------------------------------------------------------------------------------
   -.184E-13 -.125E-14 0.131E-13   0.139E-15 0.250E-15 0.894E-15   -.369E-16 0.255E-16 0.978E-17   -.294E-16 -.974E-16 0.577E-16
 
 
 POSITION                                       TOTAL-FORCE (eV/Angst)
 -----------------------------------------------------------------------------------
      2.45000      0.00000      0.63700        -0.000000     -0.000000     -0.000000
      0.00000      0.00000      0.00000         0.000000      0.000000      0.000000
 -----------------------------------------------------------------------------------
    total drift:                               -0.000000     -0.000000      0.000000


--------------------------------------------------------------------------------------------------------



  FREE ENERGIE OF THE ION-ELECTRON SYSTEM (eV)
  ---------------------------------------------------
  free  energy   TOTEN  =       -10.29615354 eV

  energy  without entropy=      -10.28478420  energy(sigma->0) =      -10.29046887
 


--------------------------------------------------------------------------------------------------------


    POTLOK:  cpu time    0.0360: real time    0.0562


--------------------------------------------------------------------------------------------------------




--------------------------------------------------------------------------------------------------------


    WAVPRE:  cpu time    0.9520: real time    2.1083
    FEWALD:  cpu time    0.0040: real time    0.0008
    GENKIN:  cpu time    0.0160: real time    0.0193
    ORTHCH:  cpu time    0.0200: real time    0.0191
     LOOP+:  cpu time    4.8080: real time    6.1909


--------------------------------------- Iteration      2(   1)  ---------------------------------------


    POTLOK:  cpu time    0.0280: real time    0.0316
    SETDIJ:  cpu time    0.0080: real time    0.0079
     EDDAV:  cpu time    0.4520: real time    0.4517
       DOS:  cpu time    0.0000: real time    0.0025
    CHARGE:  cpu time    0.0320: real time    0.0327
    MIXING:  cpu time    0.0040: real time    0.0015
    --------------------------------------------
      LOOP:  cpu time    0.5240: real time    0.5286

 eigenvalue-minimisations  :   616
 total energy-change (2. order) :-0.5012286E-03  (-0.2371900E-02)
 number of electron       7.9999996 magnetization 
 augmentation part       -0.4722129 magnetization 

 Broyden mixing:
  rms(total) = 0.94039E-02    rms(broyden)= 0.94036E-02
  rms(prec ) = 0.28444E-01
  weight for this iteration     100.00

 Free energy of the ion-electron system (eV)
  ---------------------------------------------------
  alpha Z        PSCENC =         4.41833180
  Ewald energy   TEWEN  =      -265.53412957
  -Hartree energ DENC   =        -2.49890309
  -exchange      EXHF   =         0.00000000
  -V(xc)+E(xc)   XCENC  =       -17.56185829
  PAW double counting   =        70.15847460      -35.07019292
  entropy T*S    EENTRO =        -0.01162104
  eigenvalues    EBANDS =        29.67197626
  atomic energy  EATOM  =       206.13125414
  Solvation  Ediel_sol  =         0.00000000
  ---------------------------------------------------
  free energy    TOTEN  =       -10.29666810 eV

  energy without entropy =      -10.28504706  energy(sigma->0) =      -10.29085758


--------------------------------------------------------------------------------------------------------




--------------------------------------- Iteration      2(   2)  ---------------------------------------


    POTLOK:  cpu time    0.0280: real time    0.0386
    SETDIJ:  cpu time    0.0080: real time    0.0079
     EDDAV:  cpu time    0.3560: real time    0.3591
       DOS:  cpu time    0.0040: real time    0.0022
    --------------------------------------------
      LOOP:  cpu time    0.3960: real time    0.4081

 eigenvalue-minimisations  :   472
 total energy-change (2. order) : 0.2452731E-03  (-0.5225034E-04)
 number of electron       7.9999996 magnetization 
 augmentation part       -0.4722129 magnetization 

 Free energy of the ion-electron system (eV)
  ---------------------------------------------------
  alpha Z        PSCENC =         4.41833180
  Ewald energy   TEWEN  =      -265.53412957
  -Hartree energ DENC   =        -2.48668389
  -exchange      EXHF   =         0.00000000
  -V(xc)+E(xc)   XCENC  =       -17.56172832
  PAW double counting   =        70.18159859      -35.09387011
  entropy T*S    EENTRO =        -0.01161429
  eigenvalues    EBANDS =        29.66041882
  atomic energy  EATOM  =       206.13125414
  Solvation  Ediel_sol  =         0.00000000
  ---------------------------------------------------
  free energy    TOTEN  =       -10.29642283 eV

  energy without entropy =      -10.28480854  energy(sigma->0) =      -10.29061569


--------------------------------------------------------------------------------------------------------




 average (electrostatic) potential at core
  the test charge radii are     0.9892
  (the norm of the test charge is              1.0000)
       1 -80.4875       2 -80.4875
 
 
 
 E-fermi :   9.2312     XC(G=0): -10.9053     alpha+bet :-15.7400


 k-point     1 :       0.0833    0.0833    0.0833
  band No.  band energies     occupation 
      1      -3.6498      2.00000
      2       3.9839      2.00000
      3       7.1866      2.00000
      4       8.7349      1.99955
      5      12.8519      0.00000
      6      13.7515      0.00000
      7      13.9584      0.00000
      8      15.8499      0.00000

 k-point     2 :       0.2500    0.0833    0.0833
  band No.  band energies     occupation 
      1      -1.3309      2.00000
      2       4.3348      2.00000
      3       7.4927      2.00000
      4       8.0137      2.00000
      5       9.7550      0.00021
      6      12.3840      0.00000
      7      13.5891      0.00000
      8      14.4244      0.00000

 k-point     3 :       0.4167    0.0833    0.0833
  band No.  band energies     occupation 
      1       2.1824      2.00000
      2       2.7512      2.00000
      3       6.0462      2.00000
      4       6.1724      2.00000
      5       9.6081      0.00769
      6      11.3720      0.00000
      7      13.7312      0.00000
      8      14.5456      0.00000

 k-point     4 :      -0.0833    0.0833    0.0833
  band No.  band energies     occupation 
      1      -4.4305      2.00000
      2       4.6050      2.00000
      3       5.7507      2.00000
      4       8.3615      2.00000
      5      11.4887      0.00000
      6      14.4101      0.00000
      7      17.6402      0.00000
      8      18.1597      0.00000

 k-point     5 :       0.2500    0.2500    0.0833
  band No.  band energies     occupation 
      1       2.0921      2.00000
      2       4.0053      2.00000
      3       4.1190      2.00000
      4       5.8833      2.00000
      5      11.0208      0.00000
      6      12.2345      0.00000
      7      13.8494      0.00000
      8      14.3775      0.00000

 k-point     6 :       0.4167    0.2500    0.0833
  band No.  band energies     occupation 
      1      -0.0319      2.00000
      2       1.8829      2.00000
      3       6.9868      2.00000
      4       8.3239      2.00000
      5      10.0116      0.00000
      6      11.8366      0.00000
      7      13.6437      0.00000
      8      15.2917      0.00000

 k-point     7 :      -0.4167    0.2500    0.0833
  band No.  band energies     occupation 
      1      -2.6586      2.00000
      2       1.2204      2.00000
      3       8.0819      2.00000
      4       9.9303      0.00000
      5      11.4931      0.00000
      6      12.9570      0.00000
      7      14.0862      0.00000
      8      14.3682      0.00000

 k-point     8 :      -0.2500    0.2500    0.0833
  band No.  band energies     occupation 
      1      -3.7664      2.00000
      2       2.0130      2.00000
      3       6.0248      2.00000
      4       9.9413      0.00000
      5      11.5320      0.00000
      6      14.5480      0.00000
      7      15.4426      0.00000
      8      18.8704      0.00000

 k-point     9 :      -0.0833    0.2500    0.0833
  band No.  band energies     occupation 
      1      -3.3193      2.00000
      2       3.7401      2.00000
      3       5.2176      2.00000
      4      10.7644      0.00000
      5      11.8843      0.00000
      6      13.2473      0.00000
      7      14.0443      0.00000
      8      15.9606      0.00000

 k-point    10 :       0.4167    0.4167    0.0833
  band No.  band energies     occupation 
      1      -1.0238      2.00000
      2      -1.0238      2.00000
      3       9.5361      0.03108
      4       9.5361      0.03108
      5      11.4557      0.00000
      6      11.4557      0.00000
      7      13.7069      0.00000
      8      13.7069      0.00000

 k-point    11 :      -0.4167    0.4167    0.0833
  band No.  band energies     occupation 
      1      -2.4482      2.00000
      2      -0.5003      2.00000
      3       7.2499      2.00000
      4       9.1019      1.63943
      5      11.3498      0.00000
      6      13.1846      0.00000
      7      18.1978      0.00000
      8      18.4795      0.00000

 k-point    12 :      -0.2500    0.4167    0.0833
  band No.  band energies     occupation 
      1      -2.3332      2.00000
      2       1.4876      2.00000
      3       5.6265      2.00000
      4       9.2470      0.91116
      5      11.3678      0.00000
      6      13.5529      0.00000
      7      15.5255      0.00000
      8      16.8444      0.00000

 k-point    13 :      -0.0833    0.4167    0.0833
  band No.  band energies     occupation 
      1      -0.6828      2.00000
      2       4.3292      2.00000
      3       5.9009      2.00000
      4       6.4665      2.00000
      5      10.1248      0.00000
      6      12.3583      0.00000
      7      13.3187      0.00000
      8      15.5023      0.00000

 k-point    14 :      -0.4167   -0.4167    0.0833
  band No.  band energies     occupation 
      1      -0.7137      2.00000
      2      -0.7085      2.00000
      3       7.1235      2.00000
      4       7.1410      2.00000
      5      11.2505      0.00000
      6      14.5962      0.00000
      7      15.3635      0.00000
      8      15.3853      0.00000

 k-point    15 :      -0.2500   -0.4167    0.0833
  band No.  band energies     occupation 
      1       0.5971      2.00000
      2       2.4492      2.00000
      3       5.7889      2.00000
      4       6.6004      2.00000
      5       8.2913      2.00000
      6      11.8640      0.00000
      7      15.4145      0.00000
      8      17.0714      0.00000

 k-point    16 :      -0.0833   -0.4167    0.0833
  band No.  band energies     occupation 
      1       1.4668      2.00000
      2       3.4539      2.00000
      3       6.4348      2.00000
      4       7.6068      2.00000
      5       8.2487      2.00000
      6      10.8055      0.00000
      7      11.6836      0.00000
      8      15.7804      0.00000

 k-point    17 :      -0.2500   -0.2500    0.0833
  band No.  band energies     occupation 
      1       1.1602      2.00000
      2       4.9093      2.00000
      3       4.9616      2.00000
      4       7.7698      2.00000
      5       8.7381      1.99951
      6      10.3129      0.00000
      7      12.6821      0.00000
      8      13.5576      0.00000

 k-point    18 :      -0.0833   -0.2500    0.0833
  band No.  band energies     occupation 
      1      -1.9859      2.00000
      2       6.7912      2.00000
      3       7.7532      2.00000
      4       8.5138      2.00000
      5       9.9162      0.00000
      6      11.2083      0.00000
      7      12.3587      0.00000
      8      13.5592      0.00000

 k-point    19 :      -0.0833   -0.0833    0.0833
  band No.  band energies     occupation 
      1      -3.9818      2.00000
      2       6.8859      2.00000
      3       6.8859      2.00000
      4       6.8982      2.00000
      5      11.1740      0.00000
      6      14.5211      0.00000
      7      14.7789      0.00000
      8      16.7417      0.00000

 k-point    20 :       0.2500    0.2500    0.2500
  band No.  band energies     occupation 
      1       3.3951      2.00000
      2       3.3951      2.00000
      3       4.0911      2.00000
      4       4.0911      2.00000
      5      13.2660      0.00000
      6      13.2660      0.00000
      7      15.1001      0.00000
      8      15.1001      0.00000

 k-point    21 :      -0.2500    0.2500    0.2500
  band No.  band energies     occupation 
      1      -3.1089      2.00000
      2       2.0128      2.00000
      3       3.6650      2.00000
      4       8.6223      1.99998
      5      13.0174      0.00000
      6      16.1007      0.00000
      7      17.2219      0.00000
      8      18.2319      0.00000

 k-point    22 :      -0.4167    0.4167    0.2500
  band No.  band energies     occupation 
      1      -1.8089      2.00000
      2       0.0784      2.00000
      3       4.3253      2.00000
      4       6.1569      2.00000
      5      14.8300      0.00000
      6      16.2010      0.00000
      7      17.8006      0.00000
      8      18.2341      0.00000

 k-point    23 :      -0.2500    0.4167    0.2500
  band No.  band energies     occupation 
      1      -1.3666      2.00000
      2       1.7880      2.00000
      3       3.4964      2.00000
      4       6.5643      2.00000
      5      10.7866      0.00000
      6      16.6078      0.00000
      7      17.5499      0.00000
      8      18.3964      0.00000

 k-point    24 :      -0.4167   -0.4167    0.2500
  band No.  band energies     occupation 
      1       0.1836      2.00000
      2       0.1946      2.00000
      3       4.4410      2.00000
      4       4.4447      2.00000
      5      10.5212      0.00000
      6      17.6593      0.00000
      7      18.3494      0.00000
      8      19.1563      0.00000

 k-point    25 :      -0.2500   -0.4167    0.2500
  band No.  band energies     occupation 
      1       1.8048      2.00000
      2       3.0449      2.00000
      3       4.7557      2.00000
      4       5.2354      2.00000
      5       6.0413      2.00000
      6      14.0147      0.00000
      7      15.3502      0.00000
      8      17.3123      0.00000

 k-point    26 :      -0.2500   -0.2500    0.2500
  band No.  band energies     occupation 
      1       0.8437      2.00000
      2       5.8257      2.00000
      3       5.9211      2.00000
      4       7.2628      2.00000
      5       7.2628      2.00000
      6      11.7034      0.00000
      7      12.2985      0.00000
      8      12.2985      0.00000

 k-point    27 :      -0.4167    0.4167    0.4167
  band No.  band energies     occupation 
      1      -0.5779      2.00000
      2       0.6917      2.00000
      3       2.4644      2.00000
      4       3.7154      2.00000
      5      16.1426      0.00000
      6      16.3300      0.00000
      7      19.5236      0.00000
      8      20.6543      0.00000

 k-point    28 :      -0.4167   -0.4167    0.4167
  band No.  band energies     occupation 
      1       1.1187      2.00000
      2       1.1379      2.00000
      3       2.8907      2.00000
      4       2.8907      2.00000
      5      10.2435      0.00000
      6      19.2546      0.00000
      7      20.3674      0.00000
      8      20.3674      0.00000


--------------------------------------------------------------------------------------------------------


 soft charge-density along one line, spin component           1
         0         1         2         3         4         5         6         7         8         9
 total charge-density along one line
 
 pseudopotential strength for first ion, spin component:           1
 18.057  -0.003   0.000  -0.000  -0.000  -0.000   0.000   0.000
 -0.003   0.005  -0.000   0.000   0.000   0.000  -0.000  -0.000
  0.000  -0.000   4.115   0.000   0.000  -0.006  -0.000  -0.000
 -0.000   0.000   0.000   4.116   0.000  -0.000  -0.006  -0.000
 -0.000   0.000   0.000   0.000   4.115  -0.000  -0.000  -0.006
 -0.000   0.000  -0.006  -0.000  -0.000   0.005   0.000   0.000
  0.000  -0.000  -0.000  -0.006  -0.000   0.000   0.005   0.000
  0.000  -0.000  -0.000  -0.000  -0.006   0.000   0.000   0.005
 total augmentation occupancy for first ion, spin component:           1
  1.606  -0.485   0.000   0.000   0.000   0.000   0.000   0.000
 -0.485   0.888   0.000   0.000   0.000   0.000   0.000   0.000
  0.000   0.000   0.909   0.000   0.000  -0.482   0.000   0.000
  0.000   0.000   0.000   0.853   0.000   0.000  -0.486   0.000
 -0.000  -0.000   0.000   0.000   0.909   0.000   0.000  -0.482
  0.000   0.000  -0.482   0.000   0.000   0.338   0.000   0.000
  0.000   0.000   0.000  -0.486   0.000   0.000   0.359   0.000
  0.000   0.000   0.000   0.000  -0.482   0.000   0.000   0.338


------------------------ aborting loop because EDIFF is reached ----------------------------------------


    CHARGE:  cpu time    0.0320: real time    0.0322
    FORLOC:  cpu time    0.0000: real time    0.0009
    FORNL :  cpu time    0.0160: real time    0.0146
    STRESS:  cpu time    0.1120: real time    0.1141
    FORCOR:  cpu time    0.0200: real time    0.0208
    FORHAR:  cpu time    0.0040: real time    0.0052
    MIXING:  cpu time    0.0040: real time    0.0012
    OFIELD:  cpu time    0.0000: real time    0.0004

  FORCE on cell =-STRESS in cart. coord.  units (eV):
  Direction    XX          YY          ZZ          XY          YZ          ZX
  --------------------------------------------------------------------------------------
  Alpha Z     4.41833     4.41833     4.41833
  Ewald     -90.76955   -90.76955   -83.99530     0.00000    -0.00000     0.00000
  Hartree     0.56788     0.56788     1.33038    -0.00000    -0.00000    -0.00000
  E(xc)     -25.44053   -25.44053   -25.38921    -0.00000     0.00000     0.00000
  Local     -11.34817   -11.34817   -16.71709    -0.00002    -0.00002    -0.00002
  n-local    76.78430    76.71402    76.38182     1.08195    -0.55410    -0.35722
  augment   -12.06772   -12.06772   -11.91324     0.00002     0.00002     0.00002
  Kinetic    57.47517    58.34988    55.84906     1.97706    -1.12832    -3.32634
  Fock        0.00000     0.00000     0.00000     0.00000     0.00000     0.00000
  -------------------------------------------------------------------------------------
  Total       0.02193     0.02193    -0.03525     0.00000    -0.00000     0.00000
  in kB       1.15266     1.15266    -1.85337     0.00000    -0.00000     0.00000
  external pressure =        0.15 kB  Pullay stress =        0.00 kB


 VOLUME and BASIS-vectors are now :
 -----------------------------------------------------------------------------
  energy-cutoff  :      350.00
  volume of cell :       30.48
      direct lattice vectors                 reciprocal lattice vectors
    -2.442588988  2.442588988  1.277011217    -0.000000000  0.204700833  0.391539239
     2.442588988 -2.442588988  1.277011217     0.204700833 -0.000000000  0.391539239
     2.442588988  2.442588988 -1.277011217     0.204700833  0.204700833 -0.000000000

  length of vectors
     3.682830376  3.682830376  3.682830376     0.441820559  0.441820559  0.289490694


 FORCES acting on ions
    electron-ion (+dipol)            ewald-force                    non-local-force                 convergence-correction
 -----------------------------------------------------------------------------------------------
   -.188E-06 0.188E-06 0.200E-13   0.272E-13 -.984E-15 0.787E-14   -.759E-16 0.421E-16 0.851E-17   -.459E-08 0.459E-08 -.227E-15
   0.188E-06 -.188E-06 -.696E-14   -.272E-13 0.609E-15 -.943E-14   0.957E-16 -.778E-16 0.444E-17   0.459E-08 -.459E-08 0.387E-16
 -----------------------------------------------------------------------------------------------
   -.182E-13 -.298E-14 0.130E-13   -.414E-16 -.374E-15 -.156E-14   0.198E-16 -.357E-16 0.130E-16   -.582E-16 -.105E-15 -.188E-15
 
 
 POSITION                                       TOTAL-FORCE (eV/Angst)
 -----------------------------------------------------------------------------------
      2.44259      0.00000      0.63851         0.000000     -0.000000     -0.000000
      0.00000      0.00000      0.00000        -0.000000      0.000000      0.000000
 -----------------------------------------------------------------------------------
    total drift:                               -0.000000     -0.000000      0.000000


--------------------------------------------------------------------------------------------------------



  FREE ENERGIE OF THE ION-ELECTRON SYSTEM (eV)
  ---------------------------------------------------
  free  energy   TOTEN  =       -10.29642283 eV

  energy  without entropy=      -10.28480854  energy(sigma->0) =      -10.29061569
 
 d Force = 0.0000000E+00[ 0.000E+00, 0.000E+00]  d Energy = 0.2692895E-03-0.269E-03
 d Force = 0.0000000E+00[ 0.000E+00, 0.000E+00]  d Ewald  = 0.3531165E+00-0.353E+00


--------------------------------------------------------------------------------------------------------


    POTLOK:  cpu time    0.0360: real time    0.0613


--------------------------------------------------------------------------------------------------------


 Steepest descent step on ions:
 trial-energy change:   -0.000269  1 .order   -0.000387   -0.000990    0.000216
  (g-gl).g = 0.990E-03      g.g   = 0.990E-03  gl.gl    = 0.000E+00
 g(Force)  = 0.110E-47   g(Stress)= 0.990E-03 ortho     = 0.000E+00
 gamma     =   0.00000
 trial     =   1.00000
 opt step  =   0.82096  (harmonic =   0.82096) maximal distance =0.00000000
 next E    =   -10.296560   (d E  =  -0.00041)


--------------------------------------------------------------------------------------------------------


    WAVPRE:  cpu time    0.0160: real time    0.0286
    FEWALD:  cpu time    0.0000: real time    0.0022
    GENKIN:  cpu time    0.0200: real time    0.0196
    ORTHCH:  cpu time    0.0200: real time    0.0190
     LOOP+:  cpu time    1.2600: real time    1.4232


--------------------------------------- Iteration      3(   1)  ---------------------------------------


    POTLOK:  cpu time    0.0280: real time    0.0307
    SETDIJ:  cpu time    0.0080: real time    0.0090
     EDDAV:  cpu time    0.4040: real time    0.4036
       DOS:  cpu time    0.0000: real time    0.0022
    CHARGE:  cpu time    0.0360: real time    0.0325
    MIXING:  cpu time    0.0000: real time    0.0018
    --------------------------------------------
      LOOP:  cpu time    0.4760: real time    0.4806

 eigenvalue-minimisations  :   552
 total energy-change (2. order) : 0.2596385E-03  (-0.1955665E-03)
 number of electron       7.9999996 magnetization 
 augmentation part       -0.4723621 magnetization 

 Broyden mixing:
  rms(total) = 0.19502E-02    rms(broyden)= 0.19501E-02
  rms(prec ) = 0.58563E-02
  weight for this iteration     100.00

 Free energy of the ion-electron system (eV)
  ---------------------------------------------------
  alpha Z        PSCENC =         4.41539947
  Ewald energy   TEWEN  =      -265.47096147
  -Hartree energ DENC   =        -2.47036269
  -exchange      EXHF   =         0.00000000
  -V(xc)+E(xc)   XCENC  =       -17.56445125
  PAW double counting   =        70.21889320      -35.13196739
  entropy T*S    EENTRO =        -0.01155426
  eigenvalues    EBANDS =        29.58734178
  atomic energy  EATOM  =       206.13125414
  Solvation  Ediel_sol  =         0.00000000
  ---------------------------------------------------
  free energy    TOTEN  =       -10.29640846 eV

  energy without entropy =      -10.28485421  energy(sigma->0) =      -10.29063133


--------------------------------------------------------------------------------------------------------




--------------------------------------- Iteration      3(   2)  ---------------------------------------


    POTLOK:  cpu time    0.0280: real time    0.0412
    SETDIJ:  cpu time    0.0080: real time    0.0080
     EDDAV:  cpu time    0.2200: real time    0.2195
       DOS:  cpu time    0.0000: real time    0.0023
    --------------------------------------------
      LOOP:  cpu time    0.2560: real time    0.2711

 eigenvalue-minimisations  :   248
 total energy-change (2. order) : 0.7022102E-05  (-0.5826319E-05)
 number of electron       7.9999996 magnetization 
 augmentation part       -0.4723621 magnetization 

 Free energy of the ion-electron system (eV)
  ---------------------------------------------------
  alpha Z        PSCENC =         4.41539947
  Ewald energy   TEWEN  =      -265.47096147
  -Hartree energ DENC   =        -2.47224932
  -exchange      EXHF   =         0.00000000
  -V(xc)+E(xc)   XCENC  =       -17.56438776
  PAW double counting   =        70.21831844      -35.13145405
  entropy T*S    EENTRO =        -0.01155572
  eigenvalues    EBANDS =        29.58923483
  atomic energy  EATOM  =       206.13125414
  Solvation  Ediel_sol  =         0.00000000
  ---------------------------------------------------
  free energy    TOTEN  =       -10.29640144 eV

  energy without entropy =      -10.28484572  energy(sigma->0) =      -10.29062358


--------------------------------------------------------------------------------------------------------




 average (electrostatic) potential at core
  the test charge radii are     0.9892
  (the norm of the test charge is              1.0000)
       1 -80.5131       2 -80.5131
 
 
 
 E-fermi :   9.2166     XC(G=0): -10.9041     alpha+bet :-15.7296


 k-point     1 :       0.0833    0.0833    0.0833
[...]
  ---------------------------------------------------
  alpha Z        PSCENC =         4.41080548
  Ewald energy   TEWEN  =      -265.37171796
  -Hartree energ DENC   =        -2.47484804
  -exchange      EXHF   =         0.00000000
  -V(xc)+E(xc)   XCENC  =       -17.56971324
  PAW double counting   =        70.21676368      -35.13003500
  entropy T*S    EENTRO =        -0.01148286
  eigenvalues    EBANDS =        29.50250197
  atomic energy  EATOM  =       206.13125414
  Solvation  Ediel_sol  =         0.00000000
  ---------------------------------------------------
  free energy    TOTEN  =       -10.29647184 eV

  energy without entropy =      -10.28498898  energy(sigma->0) =      -10.29073041


--------------------------------------------------------------------------------------------------------




--------------------------------------- Iteration      4(   2)  ---------------------------------------


    POTLOK:  cpu time    0.0160: real time    0.0272
    SETDIJ:  cpu time    0.0080: real time    0.0048
     EDDAV:  cpu time    0.1360: real time    0.1377
       DOS:  cpu time    0.0000: real time    0.0017
    --------------------------------------------
      LOOP:  cpu time    0.1600: real time    0.1713

 eigenvalue-minimisations  :   272
 total energy-change (2. order) : 0.1898843E-04  (-0.3582175E-05)
 number of electron       7.9999996 magnetization 
 augmentation part       -0.4724216 magnetization 

 Free energy of the ion-electron system (eV)
  ---------------------------------------------------
  alpha Z        PSCENC =         4.41080548
  Ewald energy   TEWEN  =      -265.37171796
  -Hartree energ DENC   =        -2.47822157
  -exchange      EXHF   =         0.00000000
  -V(xc)+E(xc)   XCENC  =       -17.56977915
  PAW double counting   =        70.20761569      -35.12063984
  entropy T*S    EENTRO =        -0.01148441
  eigenvalues    EBANDS =        29.50571476
  atomic energy  EATOM  =       206.13125414
  Solvation  Ediel_sol  =         0.00000000
  ---------------------------------------------------
  free energy    TOTEN  =       -10.29645285 eV

  energy without entropy =      -10.28496844  energy(sigma->0) =      -10.29071065


--------------------------------------------------------------------------------------------------------




 average (electrostatic) potential at core
  the test charge radii are     0.9892
  (the norm of the test charge is              1.0000)
       1 -80.5294       2 -80.5294
 
 
 
 E-fermi :   9.1945     XC(G=0): -10.9001     alpha+bet :-15.7132


 k-point     1 :       0.0833    0.0833    0.0833
  band No.  band energies     occupation 
      1      -3.6596      2.00000
      2       3.9466      2.00000
      3       7.1576      2.00000
      4       8.6799      1.99973
      5      12.8342      0.00000
      6      13.7290      0.00000
      7      13.9452      0.00000
      8      15.8122      0.00000

 k-point     2 :       0.2500    0.0833    0.0833
  band No.  band energies     occupation 
      1      -1.3379      2.00000
      2       4.3079      2.00000
      3       7.4910      2.00000
      4       7.9913      2.00000
      5       9.7370      0.00013
      6      12.3408      0.00000
      7      13.5670      0.00000
      8      14.3922      0.00000

 k-point     3 :       0.4167    0.0833    0.0833
  band No.  band energies     occupation 
      1       2.1863      2.00000
      2       2.7412      2.00000
      3       6.0368      2.00000
      4       6.1427      2.00000
      5       9.5904      0.00512
      6      11.3529      0.00000
      7      13.6971      0.00000
      8      14.5160      0.00000

 k-point     4 :      -0.0833    0.0833    0.0833
  band No.  band energies     occupation 
      1      -4.4412      2.00000
      2       4.5550      2.00000
      3       5.7248      2.00000
      4       8.3029      2.00000
      5      11.4679      0.00000
      6      14.3622      0.00000
      7      17.5754      0.00000
      8      18.1211      0.00000

 k-point     5 :       0.2500    0.2500    0.0833
  band No.  band energies     occupation 
      1       2.0929      2.00000
      2       3.9985      2.00000
      3       4.1055      2.00000
      4       5.8636      2.00000
      5      10.9994      0.00000
      6      12.2106      0.00000
      7      13.8184      0.00000
      8      14.3368      0.00000

 k-point     6 :       0.4167    0.2500    0.0833
  band No.  band energies     occupation 
      1      -0.0431      2.00000
      2       1.8652      2.00000
      3       6.9881      2.00000
      4       8.3119      2.00000
      5       9.9825      0.00000
      6      11.8021      0.00000
      7      13.5971      0.00000
      8      15.2449      0.00000

 k-point     7 :      -0.4167    0.2500    0.0833
  band No.  band energies     occupation 
      1      -2.6716      2.00000
      2       1.1942      2.00000
      3       8.0518      2.00000
      4       9.8781      0.00000
      5      11.4652      0.00000
      6      12.9254      0.00000
      7      14.0764      0.00000
      8      14.3433      0.00000

 k-point     8 :      -0.2500    0.2500    0.0833
  band No.  band energies     occupation 
      1      -3.7793      2.00000
      2       1.9790      2.00000
      3       5.9934      2.00000
      4       9.8854      0.00000
      5      11.4872      0.00000
      6      14.5112      0.00000
      7      15.3833      0.00000
      8      18.8738      0.00000

 k-point     9 :      -0.0833    0.2500    0.0833
  band No.  band energies     occupation 
      1      -3.3301      2.00000
      2       3.6959      2.00000
      3       5.1993      2.00000
      4      10.7182      0.00000
      5      11.8416      0.00000
      6      13.2353      0.00000
      7      14.0199      0.00000
      8      15.9439      0.00000

 k-point    10 :       0.4167    0.4167    0.0833
  band No.  band energies     occupation 
      1      -1.0422      2.00000
      2      -1.0422      2.00000
      3       9.5055      0.02786
      4       9.5055      0.02786
      5      11.4025      0.00000
      6      11.4025      0.00000
      7      13.7056      0.00000
      8      13.7056      0.00000

 k-point    11 :      -0.4167    0.4167    0.0833
  band No.  band energies     occupation 
      1      -2.4654      2.00000
      2      -0.5242      2.00000
      3       7.2146      2.00000
      4       9.0622      1.65059
      5      11.2946      0.00000
      6      13.1272      0.00000
      7      18.1981      0.00000
      8      18.4949      0.00000

 k-point    12 :      -0.2500    0.4167    0.0833
  band No.  band energies     occupation 
      1      -2.3473      2.00000
      2       1.4587      2.00000
      3       5.5998      2.00000
      4       9.2107      0.90868
      5      11.3600      0.00000
      6      13.5067      0.00000
      7      15.5206      0.00000
      8      16.7867      0.00000

 k-point    13 :      -0.0833    0.4167    0.0833
  band No.  band energies     occupation 
      1      -0.6919      2.00000
      2       4.2953      2.00000
      3       5.8917      2.00000
      4       6.4659      2.00000
      5      10.0959      0.00000
      6      12.3247      0.00000
      7      13.3198      0.00000
      8      15.4445      0.00000

 k-point    14 :      -0.4167   -0.4167    0.0833
  band No.  band energies     occupation 
      1      -0.7334      2.00000
      2      -0.7285      2.00000
      3       7.0909      2.00000
      4       7.1095      2.00000
      5      11.2541      0.00000
      6      14.5366      0.00000
      7      15.3315      0.00000
      8      15.3617      0.00000

 k-point    15 :      -0.2500   -0.4167    0.0833
  band No.  band energies     occupation 
      1       0.5835      2.00000
      2       2.4279      2.00000
      3       5.7951      2.00000
      4       6.5787      2.00000
      5       8.2634      2.00000
      6      11.8453      0.00000
      7      15.3956      0.00000
      8      17.0208      0.00000

 k-point    16 :      -0.0833   -0.4167    0.0833
  band No.  band energies     occupation 
      1       1.4688      2.00000
      2       3.4450      2.00000
      3       6.4021      2.00000
      4       7.6080      2.00000
      5       8.2183      2.00000
      6      10.7926      0.00000
      7      11.6569      0.00000
      8      15.7299      0.00000

 k-point    17 :      -0.2500   -0.2500    0.0833
  band No.  band energies     occupation 
      1       1.1627      2.00000
      2       4.8949      2.00000
      3       4.9448      2.00000
      4       7.7498      2.00000
      5       8.7250      1.99910
      6      10.2893      0.00000
      7      12.6556      0.00000
      8      13.5156      0.00000

 k-point    18 :      -0.0833   -0.2500    0.0833
  band No.  band energies     occupation 
      1      -1.9908      2.00000
      2       6.7507      2.00000
      3       7.7378      2.00000
      4       8.4966      2.00000
      5       9.8921      0.00000
      6      11.1692      0.00000
      7      12.3600      0.00000
      8      13.5469      0.00000

 k-point    19 :      -0.0833   -0.0833    0.0833
  band No.  band energies     occupation 
      1      -3.9905      2.00000
      2       6.8221      2.00000
      3       6.8574      2.00000
      4       6.8574      2.00000
      5      11.1603      0.00000
      6      14.5044      0.00000
      7      14.7744      0.00000
      8      16.7290      0.00000

 k-point    20 :       0.2500    0.2500    0.2500
  band No.  band energies     occupation 
      1       3.3975      2.00000
      2       3.3975      2.00000
      3       4.0717      2.00000
      4       4.0717      2.00000
      5      13.2385      0.00000
      6      13.2385      0.00000
      7      15.0632      0.00000
      8      15.0632      0.00000

 k-point    21 :      -0.2500    0.2500    0.2500
  band No.  band energies     occupation 
      1      -3.1240      2.00000
      2       1.9701      2.00000
      3       3.6491      2.00000
      4       8.5824      1.99998
      5      12.9530      0.00000
      6      16.0647      0.00000
      7      17.2288      0.00000
      8      18.2471      0.00000

 k-point    22 :      -0.4167    0.4167    0.2500
  band No.  band energies     occupation 
      1      -1.8287      2.00000
      2       0.0503      2.00000
      3       4.2993      2.00000
      4       6.1238      2.00000
      5      14.7793      0.00000
      6      16.1809      0.00000
      7      17.8054      0.00000
      8      18.2070      0.00000

 k-point    23 :      -0.2500    0.4167    0.2500
  band No.  band energies     occupation 
      1      -1.3844      2.00000
      2       1.7493      2.00000
      3       3.4847      2.00000
      4       6.5335      2.00000
      5      10.7980      0.00000
      6      16.5389      0.00000
      7      17.5269      0.00000
      8      18.3820      0.00000

 k-point    24 :      -0.4167   -0.4167    0.2500
  band No.  band energies     occupation 
      1       0.1588      2.00000
      2       0.1693      2.00000
      3       4.4184      2.00000
      4       4.4215      2.00000
      5      10.5352      0.00000
      6      17.6388      0.00000
      7      18.2882      0.00000
      8      19.0856      0.00000

 k-point    25 :      -0.2500   -0.4167    0.2500
  band No.  band energies     occupation 
      1       1.7855      2.00000
      2       3.0146      2.00000
      3       4.7501      2.00000
      4       5.2398      2.00000
      5       6.0209      2.00000
      6      13.9797      0.00000
      7      15.3404      0.00000
      8      17.2741      0.00000

 k-point    26 :      -0.2500   -0.2500    0.2500
  band No.  band energies     occupation 
      1       0.8469      2.00000
      2       5.7968      2.00000
      3       5.8905      2.00000
      4       7.2650      2.00000
      5       7.2650      2.00000
      6      11.6426      0.00000
      7      12.2733      0.00000
      8      12.2733      0.00000

 k-point    27 :      -0.4167    0.4167    0.4167
  band No.  band energies     occupation 
      1      -0.6041      2.00000
      2       0.6528      2.00000
      3       2.4527      2.00000
      4       3.6914      2.00000
      5      16.1542      0.00000
      6      16.3513      0.00000
      7      19.4541      0.00000
      8      20.5746      0.00000

 k-point    28 :      -0.4167   -0.4167    0.4167
  band No.  band energies     occupation 
      1       1.0824      2.00000
      2       1.1006      2.00000
      3       2.8811      2.00000
      4       2.8811      2.00000
      5      10.2595      0.00000
      6      19.2079      0.00000
      7      20.3381      0.00000
      8      20.3381      0.00000


--------------------------------------------------------------------------------------------------------


 soft charge-density along one line, spin component           1
         0         1         2         3         4         5         6         7         8         9
 total charge-density along one line
 
 pseudopotential strength for first ion, spin component:           1
 18.062  -0.003   0.000  -0.000  -0.000  -0.000   0.000   0.000
 -0.003   0.005  -0.000   0.000   0.000   0.000  -0.000  -0.000
  0.000  -0.000   4.116   0.000   0.000  -0.006  -0.000  -0.000
 -0.000   0.000   0.000   4.117   0.000  -0.000  -0.006  -0.000
 -0.000   0.000   0.000   0.000   4.116  -0.000  -0.000  -0.006
 -0.000   0.000  -0.006  -0.000  -0.000   0.005   0.000   0.000
  0.000  -0.000  -0.000  -0.006  -0.000   0.000   0.005   0.000
  0.000  -0.000  -0.000  -0.000  -0.006   0.000   0.000   0.005
 total augmentation occupancy for first ion, spin component:           1
  1.607  -0.481   0.000   0.000  -0.000   0.000   0.000  -0.000
 -0.481   0.886   0.000   0.000  -0.000  -0.000   0.000   0.000
  0.000   0.000   0.907   0.000   0.000  -0.477   0.000  -0.000
  0.000   0.000   0.000   0.856  -0.000   0.000  -0.491  -0.000
  0.000  -0.000   0.000  -0.000   0.907  -0.000  -0.000  -0.477
  0.000   0.000  -0.477   0.000  -0.000   0.332   0.000   0.000
  0.000   0.000  -0.000  -0.491  -0.000   0.000   0.364   0.000
 -0.000   0.000  -0.000  -0.000  -0.477   0.000   0.000   0.332


------------------------ aborting loop because EDIFF is reached ----------------------------------------


    CHARGE:  cpu time    0.0200: real time    0.0179
    FORLOC:  cpu time    0.0000: real time    0.0005
    FORNL :  cpu time    0.0080: real time    0.0086
    STRESS:  cpu time    0.0680: real time    0.0691
    FORCOR:  cpu time    0.0120: real time    0.0127
    FORHAR:  cpu time    0.0040: real time    0.0039
    MIXING:  cpu time    0.0000: real time    0.0008
    OFIELD:  cpu time    0.0000: real time    0.0004

  FORCE on cell =-STRESS in cart. coord.  units (eV):
  Direction    XX          YY          ZZ          XY          YZ          ZX
  --------------------------------------------------------------------------------------
  Alpha Z     4.41081     4.41081     4.41081
  Ewald     -90.85707   -90.85707   -83.65784     0.00000    -0.00000     0.00000
  Hartree     0.55885     0.55885     1.36641    -0.00000    -0.00000    -0.00000
  E(xc)     -25.41782   -25.41782   -25.38234    -0.00000     0.00000     0.00000
  Local     -11.16353   -11.16353   -17.21301    -0.00002    -0.00002    -0.00002
  n-local    76.73044    76.67347    76.51740     1.07506    -0.54916    -0.35697
  augment   -12.07541   -12.07541   -11.93083     0.00002     0.00002     0.00002
  Kinetic    57.42237    58.27019    55.87264     1.97804    -1.12423    -3.32863
  Fock        0.00000     0.00000     0.00000     0.00000     0.00000     0.00000
  -------------------------------------------------------------------------------------
  Total       0.00404     0.00404    -0.01676     0.00000     0.00000    -0.00000
  in kB       0.21213     0.21213    -0.87976     0.00000     0.00000    -0.00000
  external pressure =       -0.15 kB  Pullay stress =        0.00 kB


 VOLUME and BASIS-vectors are now :
 -----------------------------------------------------------------------------
  energy-cutoff  :      350.00
  volume of cell :       30.53
      direct lattice vectors                 reciprocal lattice vectors
    -2.445999561  2.445999561  1.275625445    -0.000000000  0.204415409  0.391964586
     2.445999561 -2.445999561  1.275625445     0.204415409 -0.000000000  0.391964586
     2.445999561  2.445999561 -1.275625445     0.204415409  0.204415409  0.000000000

  length of vectors
     3.686875097  3.686875097  3.686875097     0.442065489  0.442065489  0.289087043


 FORCES acting on ions
    electron-ion (+dipol)            ewald-force                    non-local-force                 convergence-correction
 -----------------------------------------------------------------------------------------------
   -.192E-06 0.192E-06 0.113E-13   0.142E-14 -.300E-15 -.904E-15   -.116E-16 -.186E-16 -.595E-17   0.149E-08 -.149E-08 -.841E-16
   0.192E-06 -.192E-06 -.331E-14   -.144E-14 0.616E-16 -.801E-15   0.376E-16 -.248E-16 -.618E-18   -.149E-08 0.149E-08 -.204E-17
 -----------------------------------------------------------------------------------------------
   -.180E-13 -.200E-14 0.801E-14   -.162E-16 -.238E-15 -.170E-14   0.260E-16 -.434E-16 -.656E-17   -.187E-15 -.541E-15 -.862E-16
 
 
 POSITION                                       TOTAL-FORCE (eV/Angst)
 -----------------------------------------------------------------------------------
      2.44600      0.00000      0.63781         0.000000      0.000000      0.000000
      0.00000      0.00000      0.00000        -0.000000     -0.000000     -0.000000
 -----------------------------------------------------------------------------------
    total drift:                               -0.000000     -0.000000      0.000000


--------------------------------------------------------------------------------------------------------



  FREE ENERGIE OF THE ION-ELECTRON SYSTEM (eV)
  ---------------------------------------------------
  free  energy   TOTEN  =       -10.29645285 eV

  energy  without entropy=      -10.28496844  energy(sigma->0) =      -10.29071065
 
 d Force = 0.0000000E+00[ 0.000E+00, 0.000E+00]  d Energy = 0.5141133E-04-0.514E-04
 d Force = 0.0000000E+00[ 0.000E+00, 0.000E+00]  d Ewald  =-0.9924351E-01 0.992E-01


--------------------------------------------------------------------------------------------------------


    POTLOK:  cpu time    0.0240: real time    0.0387


--------------------------------------------------------------------------------------------------------




--------------------------------------------------------------------------------------------------------


  
 reached required accuracy - stopping structural energy minimisation
 writing wavefunctions
     LOOP+:  cpu time    0.6840: real time    0.9035
    4ORBIT:  cpu time    0.0000: real time    0.0000

 total amount of memory used by VASP MPI-rank0    31875. kBytes
=======================================================================

   base      :      30000. kBytes
   nonl-proj :        846. kBytes
   fftplans  :        247. kBytes
   grid      :        561. kBytes
   one-center:          6. kBytes
   wavefun   :        215. kBytes
 
  
  
 General timing and accounting informations for this job:
 ========================================================
  
                  Total CPU time used (sec):       11.796
                            User time (sec):        9.752
                          System time (sec):        2.044
                         Elapsed time (sec):       20.707
  
                   Maximum memory used (kb):        9912.
                   Average memory used (kb):           0.
  
                          Minor page faults:        38185
                          Major page faults:           31
                 Voluntary context switches:        41005
