 running on    8 total cores
 distrk:  each k-point on    8 cores,    1 groups
 distr:  one band on    1 cores,    8 groups
 using from now: INCAR     
 vasp.5.4.4.18Apr17-6-g9f103f2a35 (build Dec 09 2018 21:25:21) complex          
  
 POSCAR found type information on POSCAR  Si
 POSCAR found :  1 types and       2 ions
 scaLAPACK will be used

 ----------------------------------------------------------------------------- 
|                                                                             |
|           W    W    AA    RRRRR   N    N  II  N    N   GGGG   !!!           |
|           W    W   A  A   R    R  NN   N  II  NN   N  G    G  !!!           |
|           W    W  A    A  R    R  N N  N  II  N N  N  G       !!!           |
|           W WW W  AAAAAA  RRRRR   N  N N  II  N  N N  G  GGG   !            |
|           WW  WW  A    A  R   R   N   NN  II  N   NN  G    G                |
|           W    W  A    A  R    R  N    N  II  N    N   GGGG   !!!           |
|                                                                             |
|      For optimal performance we recommend to set                            |
|        NCORE= 4 - approx SQRT( number of cores)                             |
|      NCORE specifies how many cores store one orbital (NPAR=cpu/NCORE).     |
|      This setting can  greatly improve the performance of VASP for DFT.     |
|      The default,   NCORE=1            might be grossly inefficient         |
|      on modern multi-core architectures or massively parallel machines.     |
|      Do your own testing !!!!                                               |
|      Unfortunately you need to use the default for GW and RPA calculations. |
|      (for HF NCORE is supported but not extensively tested yet)             |
|                                                                             |
 ----------------------------------------------------------------------------- 

 LDA part: xc-table for Pade appr. of Perdew
 POSCAR, INCAR and KPOINTS ok, starting setup
 FFT: planning ...
 WAVECAR not read
 entering main loop
       N       E                     dE             d eps       ncg     rms          rms(c)
DAV:   1     0.205405349286E+01    0.20541E+01   -0.27605E+03   448   0.574E+02
DAV:   2    -0.101312290237E+02   -0.12185E+02   -0.11801E+02   640   0.672E+01
DAV:   3    -0.103039432434E+02   -0.17271E+00   -0.17235E+00   608   0.954E+00
DAV:   4    -0.103044487136E+02   -0.50547E-03   -0.50546E-03   672   0.479E-01
DAV:   5    -0.103044503906E+02   -0.16770E-05   -0.16767E-05   616   0.136E-02    0.152E+00
DAV:   6    -0.102999680676E+02    0.44823E-02   -0.18082E-03   528   0.330E-01    0.949E-01
DAV:   7    -0.102961668735E+02    0.38012E-02   -0.53495E-03   520   0.581E-01    0.332E-02
DAV:   8    -0.102961535394E+02    0.13334E-04   -0.77708E-05   304   0.773E-02
   1 F= -.10296154E+02 E0= -.10290469E+02  d E =-.102962E+02
 curvature:   0.00 expect dE= 0.000E+00 dE for cont linesearch  0.000E+00
 trial: gam= 0.00000 g(F)=  0.110E-47 g(S)=  0.990E-03 ort = 0.000E+00 (trialstep = 0.100E+01)
 search vector abs. value=  0.990E-03
 bond charge predicted
       N       E                     dE             d eps       ncg     rms          rms(c)
DAV:   1    -0.102966681020E+02   -0.50123E-03   -0.23719E-02   616   0.897E-01    0.940E-02
DAV:   2    -0.102964228289E+02    0.24527E-03   -0.52250E-04   472   0.178E-01
   2 F= -.10296423E+02 E0= -.10290616E+02  d E =-.269290E-03
 trial-energy change:   -0.000269  1 .order   -0.000387   -0.000990    0.000216
 step:   0.8210(harm=  0.8210)  dis= 0.00000  next Energy=   -10.296560 (dE=-0.406E-03)
 bond charge predicted
       N       E                     dE             d eps       ncg     rms          rms(c)
DAV:   1    -0.102964084635E+02    0.25964E-03   -0.19557E-03   552   0.252E-01    0.195E-02
DAV:   2    -0.102964014414E+02    0.70221E-05   -0.58263E-05   248   0.624E-02
   3 F= -.10296401E+02 E0= -.10290624E+02  d E =-.247902E-03
 curvature:  -0.41 expect dE=-0.114E-03 dE for cont linesearch -0.110E-03
 ZBRENT: interpolating
 opt :   0.5398  next Energy=   -10.296474 (dE=-0.320E-03)
 bond charge predicted
       N       E                     dE             d eps       ncg     rms          rms(c)
DAV:   1    -0.102964718412E+02   -0.63378E-04   -0.15944E-03   584   0.233E-01    0.255E-02
DAV:   2    -0.102964528527E+02    0.18988E-04   -0.35822E-05   272   0.471E-02
   4 F= -.10296453E+02 E0= -.10290711E+02  d E =-.299313E-03
 curvature:  -0.27 expect dE=-0.204E-05 dE for cont linesearch -0.112E-05
 trial: gam= 0.00000 g(F)=  0.206E-47 g(S)=  0.757E-05 ort =-0.641E-04 (trialstep = 0.908E+00)
 search vector abs. value=  0.757E-05
 reached required accuracy - stopping structural energy minimisation
 writing wavefunctions
