   2   2   0   0
  0.2001288E+02  0.3839590E-09  0.3839590E-09  0.3839590E-09  0.5000000E-15
  1.000000000000000E-004
  CAR 
 unknown system                          
     17.73683956     -8.10809982  301      6.14813611      1.00000000
     -8.108  0.0000E+00  0.0000E+00
     -8.022  0.0000E+00  0.0000E+00
     -7.936  0.0000E+00  0.0000E+00
     -7.850  0.0000E+00  0.0000E+00
     -7.764  0.0000E+00  0.0000E+00
     -7.677  0.0000E+00  0.0000E+00
     -7.591  0.0000E+00  0.0000E+00
     -7.505  0.0000E+00  0.0000E+00
     -7.419  0.0000E+00  0.0000E+00
     -7.333  0.0000E+00  0.0000E+00
     -7.247  0.6961E-18  0.5997E-19
     -7.160  0.9844E-16  0.8541E-17
     -7.074  0.8469E-14  0.7381E-15
     -6.988  0.5103E-12  0.4470E-13
     -6.902  0.2156E-10  0.1902E-11
     -6.816  0.6412E-09  0.5714E-10
     -6.730  0.1347E-07  0.1217E-08
     -6.644  0.2007E-06  0.1851E-07
     -6.557  0.2135E-05  0.2024E-06
     -6.471  0.1632E-04  0.1608E-05
     -6.385  0.9055E-04  0.9409E-05
     -6.299  0.3693E-03  0.4122E-04
     -6.213  0.1127E-02  0.1383E-03
     -6.127  0.2642E-02  0.3659E-03
     -6.041  0.4914E-02  0.7892E-03
     -5.954  0.7573E-02  0.1442E-02
     -5.868  0.1015E-01  0.2316E-02
     -5.782  0.1241E-01  0.3386E-02
     -5.696  0.1434E-01  0.4621E-02
     -5.610  0.1603E-01  0.6002E-02
     -5.524  0.1760E-01  0.7518E-02
     -5.437  0.1907E-01  0.9162E-02
     -5.351  0.2039E-01  0.1092E-01
     -5.265  0.2167E-01  0.1278E-01
     -5.179  0.2310E-01  0.1477E-01
     -5.093  0.2443E-01  0.1688E-01
     -5.007  0.2547E-01  0.1907E-01
     -4.921  0.2657E-01  0.2136E-01
     -4.834  0.2808E-01  0.2378E-01
     -4.748  0.2961E-01  0.2633E-01
     -4.662  0.3073E-01  0.2898E-01
     -4.576  0.3160E-01  0.3170E-01
     -4.490  0.3283E-01  0.3453E-01
     -4.404  0.3480E-01  0.3753E-01
     -4.318  0.3692E-01  0.4071E-01
     -4.231  0.3832E-01  0.4401E-01
     -4.145  0.3937E-01  0.4740E-01
     -4.059  0.4141E-01  0.5097E-01
     -3.973  0.4491E-01  0.5484E-01
     -3.887  0.4908E-01  0.5907E-01
     -3.801  0.5268E-01  0.6361E-01
     -3.714  0.5462E-01  0.6831E-01
     -3.628  0.5453E-01  0.7301E-01
     -3.542  0.5358E-01  0.7762E-01
     -3.456  0.5303E-01  0.8219E-01
     -3.370  0.5246E-01  0.8671E-01
     -3.284  0.5110E-01  0.9111E-01
     -3.198  0.4879E-01  0.9532E-01
     -3.111  0.4534E-01  0.9922E-01
     -3.025  0.4145E-01  0.1028E+00
     -2.939  0.3941E-01  0.1062E+00
     -2.853  0.4021E-01  0.1097E+00
     -2.767  0.4110E-01  0.1132E+00
     -2.681  0.3866E-01  0.1165E+00
     -2.595  0.3293E-01  0.1194E+00
     -2.508  0.2720E-01  0.1217E+00
     -2.422  0.2464E-01  0.1238E+00
     -2.336  0.2537E-01  0.1260E+00
     -2.250  0.2622E-01  0.1283E+00
     -2.164  0.2374E-01  0.1303E+00
     -2.078  0.1763E-01  0.1318E+00
     -1.991  0.1061E-01  0.1327E+00
     -1.905  0.5829E-02  0.1333E+00
     -1.819  0.5285E-02  0.1337E+00
     -1.733  0.9449E-02  0.1345E+00
     -1.647  0.1652E-01  0.1359E+00
     -1.561  0.2235E-01  0.1379E+00
     -1.475  0.2382E-01  0.1399E+00
     -1.388  0.2247E-01  0.1419E+00
     -1.302  0.2351E-01  0.1439E+00
     -1.216  0.3188E-01  0.1466E+00
     -1.130  0.4862E-01  0.1508E+00
     -1.044  0.6828E-01  0.1567E+00
     -0.958  0.8113E-01  0.1637E+00
     -0.872  0.8153E-01  0.1707E+00
     -0.785  0.7300E-01  0.1770E+00
     -0.699  0.6294E-01  0.1824E+00
     -0.613  0.5538E-01  0.1872E+00
     -0.527  0.5084E-01  0.1916E+00
     -0.441  0.4870E-01  0.1958E+00
     -0.355  0.4659E-01  0.1998E+00
     -0.268  0.4206E-01  0.2034E+00
     -0.182  0.3669E-01  0.2066E+00
     -0.096  0.3374E-01  0.2095E+00
     -0.010  0.3247E-01  0.2123E+00
      0.076  0.3023E-01  0.2149E+00
      0.162  0.2806E-01  0.2173E+00
      0.248  0.2855E-01  0.2198E+00
      0.335  0.3003E-01  0.2223E+00
      0.421  0.2841E-01  0.2248E+00
      0.507  0.2383E-01  0.2268E+00
      0.593  0.2066E-01  0.2286E+00
      0.679  0.2104E-01  0.2304E+00
      0.765  0.2220E-01  0.2323E+00
      0.851  0.2098E-01  0.2342E+00
      0.938  0.1829E-01  0.2357E+00
      1.024  0.1739E-01  0.2372E+00
      1.110  0.1889E-01  0.2389E+00
      1.196  0.2009E-01  0.2406E+00
      1.282  0.1960E-01  0.2423E+00
      1.368  0.2040E-01  0.2440E+00
      1.455  0.2665E-01  0.2463E+00
      1.541  0.3900E-01  0.2497E+00
      1.627  0.5389E-01  0.2543E+00
      1.713  0.6590E-01  0.2600E+00
      1.799  0.7136E-01  0.2662E+00
      1.885  0.7158E-01  0.2723E+00
      1.971  0.7098E-01  0.2784E+00
      2.058  0.7155E-01  0.2846E+00
      2.144  0.7147E-01  0.2908E+00
      2.230  0.6928E-01  0.2967E+00
      2.316  0.6685E-01  0.3025E+00
      2.402  0.6727E-01  0.3083E+00
      2.488  0.7090E-01  0.3144E+00
      2.574  0.7492E-01  0.3208E+00
      2.661  0.7705E-01  0.3275E+00
      2.747  0.7821E-01  0.3342E+00
      2.833  0.8063E-01  0.3412E+00
      2.919  0.8527E-01  0.3485E+00
      3.005  0.9153E-01  0.3564E+00
      3.091  0.9725E-01  0.3648E+00
      3.178  0.9973E-01  0.3734E+00
      3.264  0.9822E-01  0.3818E+00
      3.350  0.9489E-01  0.3900E+00
      3.436  0.9283E-01  0.3980E+00
      3.522  0.9306E-01  0.4060E+00
      3.608  0.9342E-01  0.4141E+00
      3.694  0.9149E-01  0.4219E+00
      3.781  0.8801E-01  0.4295E+00
      3.867  0.8573E-01  0.4369E+00
      3.953  0.8522E-01  0.4443E+00
      4.039  0.8459E-01  0.4515E+00
      4.125  0.8297E-01  0.4587E+00
      4.211  0.8130E-01  0.4657E+00
      4.297  0.8005E-01  0.4726E+00
      4.384  0.7848E-01  0.4794E+00
      4.470  0.7569E-01  0.4859E+00
      4.556  0.7184E-01  0.4921E+00
      4.642  0.6771E-01  0.4979E+00
      4.728  0.6272E-01  0.5033E+00
      4.814  0.5546E-01  0.5081E+00
      4.901  0.4687E-01  0.5121E+00
      4.987  0.3985E-01  0.5155E+00
      5.073  0.3550E-01  0.5186E+00
      5.159  0.3234E-01  0.5214E+00
      5.245  0.2876E-01  0.5239E+00
      5.331  0.2470E-01  0.5260E+00
      5.417  0.2099E-01  0.5278E+00
      5.504  0.1796E-01  0.5294E+00
      5.590  0.1519E-01  0.5307E+00
      5.676  0.1213E-01  0.5317E+00
      5.762  0.8747E-02  0.5325E+00
      5.848  0.5490E-02  0.5329E+00
      5.934  0.2899E-02  0.5332E+00
      6.020  0.1240E-02  0.5333E+00
      6.107  0.4288E-03  0.5333E+00
      6.193  0.2166E-03  0.5333E+00
      6.279  0.5131E-03  0.5334E+00
      6.365  0.1546E-02  0.5335E+00
      6.451  0.3610E-02  0.5338E+00
      6.537  0.6715E-02  0.5344E+00
      6.624  0.1072E-01  0.5353E+00
      6.710  0.1550E-01  0.5367E+00
      6.796  0.2039E-01  0.5384E+00
      6.882  0.2425E-01  0.5405E+00
      6.968  0.2668E-01  0.5428E+00
      7.054  0.2872E-01  0.5453E+00
      7.140  0.3207E-01  0.5481E+00
      7.227  0.3710E-01  0.5512E+00
      7.313  0.4193E-01  0.5549E+00
      7.399  0.4505E-01  0.5587E+00
      7.485  0.4776E-01  0.5629E+00
      7.571  0.5187E-01  0.5673E+00
      7.657  0.5728E-01  0.5723E+00
      7.743  0.6357E-01  0.5777E+00
      7.830  0.7097E-01  0.5838E+00
      7.916  0.7934E-01  0.5907E+00
      8.002  0.8817E-01  0.5983E+00
      8.088  0.9614E-01  0.6066E+00
      8.174  0.1003E+00  0.6152E+00
      8.260  0.9955E-01  0.6238E+00
      8.347  0.9677E-01  0.6321E+00
      8.433  0.9450E-01  0.6403E+00
      8.519  0.9153E-01  0.6481E+00
      8.605  0.8643E-01  0.6556E+00
      8.691  0.8073E-01  0.6625E+00
      8.777  0.7688E-01  0.6692E+00
      8.863  0.7609E-01  0.6757E+00
      8.950  0.7965E-01  0.6826E+00
      9.036  0.8944E-01  0.6903E+00
      9.122  0.1045E+00  0.6993E+00
      9.208  0.1191E+00  0.7096E+00
      9.294  0.1269E+00  0.7205E+00
      9.380  0.1265E+00  0.7314E+00
      9.466  0.1205E+00  0.7418E+00
      9.553  0.1125E+00  0.7515E+00
      9.639  0.1057E+00  0.7606E+00
      9.725  0.1011E+00  0.7693E+00
      9.811  0.9695E-01  0.7776E+00
      9.897  0.9211E-01  0.7856E+00
      9.983  0.8767E-01  0.7931E+00
     10.070  0.8513E-01  0.8004E+00
     10.156  0.8417E-01  0.8077E+00
     10.242  0.8342E-01  0.8149E+00
     10.328  0.8244E-01  0.8220E+00
     10.414  0.8230E-01  0.8291E+00
     10.500  0.8344E-01  0.8363E+00
     10.586  0.8413E-01  0.8435E+00
     10.673  0.8320E-01  0.8507E+00
     10.759  0.8205E-01  0.8577E+00
     10.845  0.8207E-01  0.8648E+00
     10.931  0.8230E-01  0.8719E+00
     11.017  0.8172E-01  0.8789E+00
     11.103  0.8139E-01  0.8860E+00
     11.189  0.8125E-01  0.8930E+00
     11.276  0.7871E-01  0.8997E+00
     11.362  0.7350E-01  0.9061E+00
     11.448  0.6973E-01  0.9121E+00
     11.534  0.7020E-01  0.9181E+00
     11.620  0.7247E-01  0.9244E+00
     11.706  0.7341E-01  0.9307E+00
     11.793  0.7349E-01  0.9370E+00
     11.879  0.7358E-01  0.9434E+00
     11.965  0.7217E-01  0.9496E+00
     12.051  0.6828E-01  0.9555E+00
     12.137  0.6322E-01  0.9609E+00
     12.223  0.5865E-01  0.9660E+00
     12.309  0.5595E-01  0.9708E+00
     12.396  0.5661E-01  0.9757E+00
     12.482  0.6061E-01  0.9809E+00
     12.568  0.6497E-01  0.9865E+00
     12.654  0.6612E-01  0.9922E+00
     12.740  0.6293E-01  0.9976E+00
     12.826  0.5634E-01  0.1002E+01
     12.912  0.4785E-01  0.1007E+01
     12.999  0.4042E-01  0.1010E+01
     13.085  0.3782E-01  0.1013E+01
     13.171  0.4070E-01  0.1017E+01
     13.257  0.4557E-01  0.1021E+01
     13.343  0.4871E-01  0.1025E+01
     13.429  0.4877E-01  0.1029E+01
     13.515  0.4586E-01  0.1033E+01
     13.602  0.4069E-01  0.1037E+01
     13.688  0.3484E-01  0.1040E+01
     13.774  0.2993E-01  0.1042E+01
     13.860  0.2646E-01  0.1044E+01
     13.946  0.2420E-01  0.1047E+01
     14.032  0.2370E-01  0.1049E+01
     14.119  0.2558E-01  0.1051E+01
     14.205  0.2759E-01  0.1053E+01
     14.291  0.2556E-01  0.1055E+01
     14.377  0.1882E-01  0.1057E+01
     14.463  0.1142E-01  0.1058E+01
     14.549  0.7247E-02  0.1059E+01
     14.635  0.6581E-02  0.1059E+01
     14.722  0.7501E-02  0.1060E+01
     14.808  0.8898E-02  0.1061E+01
     14.894  0.1084E-01  0.1062E+01
     14.980  0.1241E-01  0.1063E+01
     15.066  0.1163E-01  0.1064E+01
     15.152  0.8246E-02  0.1064E+01
     15.238  0.4447E-02  0.1065E+01
     15.325  0.2327E-02  0.1065E+01
     15.411  0.2170E-02  0.1065E+01
     15.497  0.3014E-02  0.1065E+01
     15.583  0.3793E-02  0.1066E+01
     15.669  0.3967E-02  0.1066E+01
     15.755  0.3459E-02  0.1066E+01
     15.842  0.2443E-02  0.1066E+01
     15.928  0.1328E-02  0.1067E+01
     16.014  0.5324E-03  0.1067E+01
     16.100  0.1537E-03  0.1067E+01
     16.186  0.3152E-04  0.1067E+01
     16.272  0.4562E-05  0.1067E+01
     16.358  0.4642E-06  0.1067E+01
     16.445  0.3312E-07  0.1067E+01
     16.531  0.1654E-08  0.1067E+01
     16.617  0.5771E-10  0.1067E+01
     16.703  0.1405E-11  0.1067E+01
     16.789  0.2382E-13  0.1067E+01
     16.875  0.2810E-15  0.1067E+01
     16.961  0.2387E-17  0.1067E+01
     17.048  0.0000E+00  0.1067E+01
     17.134  0.0000E+00  0.1067E+01
     17.220  0.0000E+00  0.1067E+01
     17.306  0.0000E+00  0.1067E+01
     17.392  0.0000E+00  0.1067E+01
     17.478  0.0000E+00  0.1067E+01
     17.565  0.0000E+00  0.1067E+01
     17.651  0.0000E+00  0.1067E+01
     17.737  0.0000E+00  0.1067E+01
