    2    2   15    1
  0.2001288E+02  0.3839590E-09  0.3839590E-09  0.3839590E-09  0.5000000E-15
  1.000000000000000E-004
  CAR 
 unknown system                          
      8     10      8
 
  0.0000000E+00  0.0000000E+00  0.0000000E+00  0.8000000E-02
    1       -6.117313   1.000000
    2        5.858037   0.971176
    3        5.858048   0.971171
    4        5.858048   0.971171
    5        8.419581   0.000000
    6        8.419594   0.000000
    7        8.419594   0.000000
    8        9.225531   0.000000
 
  0.2000000E+00  0.1993820E-16  0.3023569E-17  0.6400000E-01
    1       -5.599511   1.000000
    2        2.842299   1.000000
    3        5.274794   1.000000
    4        5.274803   1.000000
    5        8.078033   0.000000
    6        9.223050   0.000000
    7        9.223069   0.000000
    8       11.912967   0.000000
 
  0.4000000E+00  0.3987640E-16  0.6047138E-17  0.6400000E-01
    1       -4.235748   1.000000
    2       -0.425761   1.000000
    3        4.725031   1.000000
    4        4.725041   1.000000
    5        7.480570   0.000000
    6        9.278920   0.000000
    7        9.278952   0.000000
    8       13.687416   0.000000
 
  0.2000000E+00  0.2000000E+00  0.4572614E-17  0.4800000E-01
    1       -5.421310   1.000000
    2        3.231146   1.000000
    3        4.362588   1.000000
    4        4.362594   1.000000
    5        7.315258   0.000000
    6        9.750934   0.000000
    7       10.757590   0.000000
    8       10.757599   0.000000
 
  0.4000000E+00  0.2000000E+00  0.1623023E-16  0.1920000E+00
    1       -4.279146   1.000000
    2        0.540918   1.000000
    3        3.224386   1.000000
    4        3.852996   1.000000
    5        7.631681   0.000000
    6        9.950615   0.000000
    7       10.802366   0.000000
    8       11.307057   0.000000
 
 -0.4000000E+00  0.2000000E+00  0.9097260E-17  0.1920000E+00
    1       -3.393767   1.000000
    2       -0.855403   1.000000
    3        2.413925   1.000000
    4        4.135524   1.000000
    5        7.915440   0.000000
    6       10.471259   0.000000
    7       10.664929   0.000000
    8       13.440503   0.000000
 
 -0.2000000E+00  0.2000000E+00  0.1212083E-16  0.9600000E-01
    1       -4.767404   1.000000
    2        1.375319   1.000000
    3        2.846097   1.000000
    4        5.006449   1.000000
    5        8.753370   0.000000
    6        9.850588   0.000000
    7       10.179948   0.000000
    8       11.603475   0.000000
 
  0.4000000E+00  0.4000000E+00  0.9145228E-17  0.4800000E-01
    1       -3.402424   1.000000
    2       -0.328387   1.000000
    3        3.152732   1.000000
    4        3.152737   1.000000
    5        6.435630   0.014414
    6        7.167895   0.000000
    7       14.388913   0.000000
    8       14.388924   0.000000
 
 -0.4000000E+00  0.4000000E+00  0.2424166E-16  0.9600000E-01
    1       -2.195793   1.000000
    2       -1.590923   1.000000
    3        1.780097   1.000000
    4        3.271849   1.000000
    5        6.885942   0.000000
    6        9.014157   0.000000
    7       13.965927   0.000000
    8       14.561868   0.000000
 
 -0.4000000E+00  0.4000000E+00  0.2000000E+00  0.1920000E+00
    1       -2.962723   1.000000
    2       -0.712293   1.000000
    3        1.865228   1.000000
    4        2.854155   1.000000
    5        9.256740   0.000000
    6        9.634866   0.000000
    7       10.295869   0.000000
    8       13.662439   0.000000
