unknown system                          
   1.00000000000000     
     0.000000    2.734299    2.734299
     2.734299    0.000000    2.734299
     2.734299    2.734299    0.000000
   Si
     2
Direct
  0.000000  0.000000  0.000000
  0.250000  0.250000  0.250000
 
   36   36   36
 -7.5223     -6.1073     -2.2439      3.0637      8.5454      13.073      15.955      17.040      16.637      15.332    
  13.733      12.134      10.665      9.4044      8.3868      7.6157      7.0801      6.7656      6.6620      6.7656    
  7.0801      7.6157      8.3867      9.4044      10.665      12.134      13.733      15.332      16.637      17.039    
  15.955      13.073      8.5452      3.0637     -2.2438     -6.1072     -6.1073     -3.2830      1.5844      7.2363    
  12.386      16.105      18.007      18.228      17.264      15.750      14.136      12.586      11.201      10.035    
  9.1112      8.4300      7.9832      7.7621      7.7621      7.9832      8.4300      9.1112      10.035      11.201    
  12.587      14.137      15.751      17.264      18.228      18.006      16.104      12.386      7.2362      1.5844    
 -3.2830     -6.1073     -2.2439      1.5844      6.7580      11.974      16.139      18.653      19.455      18.907    
  17.589      16.040      14.487      13.041      11.773      10.722      9.9046      9.3221      8.9732      8.8570    
  8.9733      9.3221      9.9046      10.722      11.773      13.041      14.487      16.041      17.589      18.907    
  19.455      18.652      16.139      11.974      6.7580      1.5844     -2.2439     -3.6580      3.0637      7.2363    
  11.974      16.141      18.978      20.232      20.105      19.075      17.682      16.215      14.790      13.489    
  12.361      11.436      10.728      10.248      10.006      10.006      10.249      10.728      11.436      12.361    
  13.489      14.790      16.215      17.682      19.076      20.105      20.232      18.978      16.141      11.974    
  7.2363      3.0637     0.61088     0.61085      8.5454      12.386      16.139      18.978      20.499      20.738    
  20.045      18.895      17.605      16.295      15.045      13.911      12.929      12.126      11.526      11.152    
  11.024      11.152      11.526      12.126      12.929      13.911      15.045      16.295      17.605      18.895    
  20.045      20.738      20.499      18.978      16.139      12.386      8.5454      5.6510      4.5727      5.6511    
  13.073      16.105      18.653      20.232      20.738      20.382      19.541      18.510      17.403      16.295    
  15.239      14.272      13.426      12.732      12.234      11.971      11.971      12.234      12.732      13.426    
  14.273      15.239      16.295      17.403      18.510      19.541      20.382      20.738      20.232      18.653    
  16.105      13.073      10.333      8.7012      8.7013      10.333      15.955      18.007      19.455      20.105    
  20.045      19.541      18.824      17.991      17.107      16.215      15.345      14.525      13.790      13.192    
  12.795      12.655      12.795      13.192      13.790      14.525      15.346      16.215      17.107      17.991    
  18.824      19.541      20.045      20.105      19.455      18.007      15.955      13.778      12.105      11.477    
  12.105      13.778      17.040      18.228      18.907      19.075      18.895      18.510      17.991      17.388    
  16.732      16.040      15.327      14.619      13.968      13.450      13.159      13.159      13.450      13.968    
  14.619      15.327      16.040      16.732      17.388      17.991      18.510      18.895      19.075      18.907    
  18.228      17.040      15.562      14.192      13.365      13.365      14.192      15.562      16.637      17.264    
  17.589      17.682      17.605      17.403      17.107      16.732      16.281      15.750      15.150      14.510    
  13.907      13.464      13.300      13.464      13.907      14.510      15.150      15.751      16.281      16.732    
  17.107      17.403      17.605      17.682      17.589      17.264      16.637      15.751      14.798      14.057    
  13.777      14.057      14.798      15.751      15.332      15.750      16.040      16.215      16.295      16.295    
  16.215      16.040      15.750      15.332      14.787      14.168      13.610      13.276      13.276      13.610    
  14.168      14.787      15.332      15.750      16.040      16.215      16.295      16.295      16.215      16.040    
  15.750      15.332      14.787      14.168      13.610      13.276      13.276      13.610      14.168      14.787    
  13.733      14.136      14.487      14.790      15.045      15.239      15.345      15.327      15.150      14.787    
  14.253      13.660      13.192      13.014      13.192      13.660      14.253      14.787      15.150      15.327    
  15.346      15.239      15.045      14.791      14.487      14.136      13.733      13.282      12.814      12.385    
  12.076      11.962      12.076      12.385      12.814      13.282      12.134      12.586      13.041      13.489    
  13.911      14.272      14.525      14.619      14.510      14.168      13.660      13.150      12.831      12.831    
  13.151      13.660      14.168      14.510      14.619      14.525      14.272      13.911      13.489      13.041    
  12.587      12.134      11.687      11.257      10.869      10.568      10.402      10.402      10.568      10.869    
  11.257      11.687      10.665      11.201      11.773      12.361      12.929      13.426      13.790      13.968    
  13.907      13.610      13.192      12.831      12.690      12.831      13.192      13.610      13.907      13.968    
  13.790      13.426      12.929      12.361      11.773      11.201      10.665      10.174      9.7328      9.3502    
  9.0457      8.8463      8.7765      8.8463      9.0457      9.3502      9.7327      10.174      9.4044      10.035    
  10.722      11.436      12.126      12.732      13.192      13.450      13.464      13.276      13.014      12.831    
  12.831      13.014      13.276      13.464      13.450      13.192      12.732      12.126      11.436      10.722    
  10.035      9.4043      8.8454      8.3622      7.9563      7.6330      7.4041      7.2845      7.2845      7.4042    
  7.6331      7.9564      8.3623      8.8455      8.3868      9.1112      9.9046      10.728      11.526      12.234    
  12.795      13.159      13.300      13.276      13.192      13.151      13.192      13.276      13.300      13.159    
  12.795      12.234      11.526      10.728      9.9046      9.1112      8.3868      7.7518      7.2122      6.7661    
  6.4113      6.1500      5.9882      5.9333      5.9883      6.1501      6.4115      6.7662      7.2122      7.7518    
  7.6157      8.4300      9.3221      10.248      11.152      11.971      12.655      13.159      13.464      13.610    
  13.660      13.660      13.610      13.464      13.159      12.655      11.971      11.152      10.249      9.3221    
  8.4300      7.6158      6.9041      6.3029      5.8091      5.4162      5.1195      4.9190      4.8174      4.8174    
  4.9191      5.1197      5.4162      5.8091      6.3028      6.9040      7.0801      7.9832      8.9732      10.006    
  11.024      11.971      12.795      13.450      13.907      14.168      14.253      14.168      13.907      13.450    
  12.795      11.971      11.024      10.006      8.9733      7.9831      7.0800      6.2911      5.6258      5.0807    
  4.6462      4.3131      4.0759      3.9331      3.8853      3.9331      4.0760      4.3131      4.6461      5.0805    
  5.6257      6.2911      6.7656      7.7621      8.8570      10.006      11.152      12.234      13.192      13.968    
  14.510      14.787      14.787      14.510      13.968      13.192      12.234      11.152      10.006      8.8571    
  7.7621      6.7656      5.8954      5.1616      4.5607      4.0811      3.7099      3.4371      3.2570      3.1672    
  3.1672      3.2570      3.4371      3.7098      4.0809      4.5606      5.1617      5.8954      6.6620      7.7621    
  8.9733      10.249      11.526      12.732      13.790      14.619      15.150      15.332      15.150      14.619    
  13.790      12.732      11.526      10.249      8.9733      7.7621      6.6620      5.7017      4.8916      4.2276    
  3.6968      3.2835      2.9740      2.7583      2.6307      2.5884      2.6306      2.7582      2.9739      3.2834    
  3.6968      4.2276      4.8916      5.7017      6.7656      7.9832      9.3221      10.728      12.126      13.426    
  14.525      15.327      15.751      15.750      15.327      14.525      13.426      12.126      10.728      9.3221    
  7.9831      6.7656      5.7017      4.8031      4.0653      3.4741      3.0116      2.6609      2.4085      2.2449    
  2.1644      2.1644      2.2448      2.4084      2.6609      3.0116      3.4741      4.0653      4.8031      5.7017    
  7.0801      8.4300      9.9046      11.436      12.929      14.273      15.346      16.040      16.281      16.040    
  15.346      14.272      12.929      11.436      9.9046      8.4300      7.0800      5.8954      4.8916      4.0653    
  3.4012      2.8793      2.4799      2.1863      1.9856      1.8686      1.8302      1.8686      1.9855      2.1863    
  2.4800      2.8793      3.4012      4.0653      4.8917      5.8954      7.6157      9.1112      10.722      12.361    
  13.911      15.239      16.215      16.732      16.732      16.215      15.239      13.911      12.361      10.722    
  9.1112      7.6158      6.2911      5.1616      4.2276      3.4741      2.8793      2.4207      2.0784      1.8362    
  1.6817      1.6066      1.6066      1.6817      1.8362      2.0785      2.4208      2.8793      3.4741      4.2276    
  5.1617      6.2911      8.3867      10.035      11.773      13.489      15.045      16.295      17.107      17.388    
  17.107      16.295      15.045      13.489      11.773      10.035      8.3868      6.9041      5.6258      4.5607    
  3.6968      3.0116      2.4799      2.0784      1.7874      1.5913      1.4784      1.4416      1.4784      1.5913    
  1.7874      2.0784      2.4800      3.0116      3.6968      4.5606      5.6257      6.9040      9.4044      11.201    
  13.041      14.790      16.295      17.403      17.991      17.991      17.403      16.295      14.791      13.041    
  11.201      9.4043      7.7518      6.3029      5.0807      4.0811      3.2835      2.6609      2.1863      1.8362    
  1.5913      1.4367      1.3621      1.3621      1.4367      1.5913      1.8362      2.1863      2.6609      3.2834    
  4.0809      5.0805      6.3028      7.7518      10.665      12.587      14.487      16.215      17.605      18.510    
  18.824      18.510      17.605      16.215      14.487      12.587      10.665      8.8454      7.2122      5.8091    
  4.6462      3.7099      2.9740      2.4085      1.9856      1.6817      1.4784      1.3621      1.3243      1.3621    
  1.4784      1.6817      1.9855      2.4084      2.9739      3.7098      4.6461      5.8091      7.2122      8.8455    
  12.134      14.137      16.041      17.682      18.895      19.541      19.541      18.895      17.682      16.040    
  14.136      12.134      10.174      8.3622      6.7661      5.4162      4.3131      3.4371      2.7583      2.2449    
  1.8686      1.6066      1.4416      1.3621      1.3621      1.4417      1.6066      1.8686      2.2448      2.7582    
  3.4371      4.3131      5.4162      6.7662      8.3624      10.174      13.733      15.751      17.589      19.076    
  20.045      20.382      20.045      19.075      17.589      15.750      13.733      11.687      9.7328      7.9563    
  6.4113      5.1195      4.0759      3.2570      2.6307      2.1644      1.8302      1.6066      1.4784      1.4367    
  1.4784      1.6066      1.8302      2.1644      2.6306      3.2570      4.0760      5.1197      6.4115      7.9564    
  9.7328      11.687      15.332      17.264      18.907      20.105      20.738      20.738      20.105      18.907    
  17.264      15.332      13.282      11.257      9.3502      7.6330      6.1500      4.9190      3.9331      3.1672    
  2.5884      2.1644      1.8686      1.6817      1.5913      1.5913      1.6817      1.8686      2.1644      2.5884    
  3.1672      3.9332      4.9191      6.1500      7.6330      9.3502      11.257      13.282      16.637      18.228    
  19.455      20.232      20.499      20.232      19.455      18.228      16.637      14.787      12.814      10.869    
  9.0457      7.4041      5.9882      4.8174      3.8853      3.1672      2.6306      2.2448      1.9855      1.8362    
  1.7874      1.8362      1.9855      2.2448      2.6306      3.1672      3.8854      4.8175      5.9883      7.4041    
  9.0457      10.869      12.814      14.787      17.039      18.006      18.652      18.978      18.978      18.653    
  18.007      17.040      15.751      14.168      12.385      10.568      8.8463      7.2845      5.9333      4.8174    
  3.9331      3.2570      2.7582      2.4084      2.1863      2.0785      2.0784      2.1863      2.4084      2.7582    
  3.2570      3.9332      4.8175      5.9333      7.2844      8.8463      10.568      12.385      14.168      15.751    
  15.955      16.104      16.139      16.141      16.139      16.105      15.955      15.562      14.798      13.610    
  12.076      10.402      8.7765      7.2845      5.9883      4.9191      4.0760      3.4371      2.9739      2.6609    
  2.4800      2.4208      2.4800      2.6609      2.9739      3.4371      4.0760      4.9191      5.9883      7.2844    
  8.7765      10.402      12.076      13.610      14.798      15.561      13.073      12.386      11.974      11.974    
  12.386      13.073      13.778      14.192      14.057      13.276      11.962      10.402      8.8463      7.4042    
  6.1501      5.1197      4.3131      3.7098      3.2834      3.0116      2.8793      2.8793      3.0116      3.2834    
  3.7098      4.3131      5.1197      6.1500      7.4041      8.8463      10.402      11.962      13.276      14.057    
  14.192      13.778      8.5452      7.2362      6.7580      7.2363      8.5454      10.333      12.105      13.365    
  13.777      13.276      12.076      10.568      9.0457      7.6331      6.4115      5.4162      4.6461      4.0809    
  3.6968      3.4741      3.4012      3.4741      3.6968      4.0809      4.6461      5.4162      6.4115      7.6330    
  9.0457      10.568      12.076      13.276      13.777      13.366      12.105      10.333      3.0637      1.5844    
  1.5844      3.0637      5.6510      8.7012      11.477      13.365      14.057      13.610      12.385      10.869    
  9.3502      7.9564      6.7662      5.8091      5.0805      4.5606      4.2276      4.0653      4.0653      4.2276    
  4.5606      5.0805      5.8091      6.7662      7.9564      9.3502      10.869      12.385      13.610      14.057    
  13.366      11.477      8.7011      5.6510     -2.2438     -3.2830     -2.2439     0.61088      4.5727      8.7013    
  12.105      14.192      14.798      14.168      12.814      11.257      9.7327      8.3623      7.2122      6.3028    
  5.6257      5.1617      4.8916      4.8031      4.8917      5.1617      5.6257      6.3028      7.2122      8.3624    
  9.7328      11.257      12.814      14.168      14.798      14.192      12.105      8.7011      4.5727     0.61102    
 -6.1072     -6.1073     -3.6580     0.61085      5.6511      10.333      13.778      15.562      15.751      14.787    
  13.282      11.687      10.174      8.8455      7.7518      6.9040      6.2911      5.8954      5.7017      5.7017    
  5.8954      6.2911      6.9040      7.7518      8.8455      10.174      11.687      13.282      14.787      15.751    
  15.561      13.778      10.333      5.6510     0.61102     -3.6578     -6.1073     -3.2830      1.5844      7.2363    
  12.386      16.105      18.007      18.228      17.264      15.750      14.136      12.586      11.201      10.035    
  9.1112      8.4300      7.9832      7.7621      7.7621      7.9832      8.4300      9.1112      10.035      11.201    
  12.587      14.137      15.751      17.264      18.228      18.006      16.104      12.386      7.2362      1.5844    
 -3.2830     -6.1073     -3.2830     0.73259      6.1634      11.649      16.051      18.741      19.654      19.157    
  17.845      16.281      14.709      13.241      11.953      10.885      10.053      9.4596      9.1045      8.9862    
  9.1045      9.4596      10.053      10.885      11.953      13.241      14.709      16.281      17.845      19.157    
  19.653      18.741      16.050      11.649      6.1633     0.73246     -3.2831     -4.7659      1.5844      6.1634    
  11.375      15.988      19.177      20.666      20.660      19.659      18.238      16.732      15.265      13.920    
  12.751      11.790      11.055      10.556      10.304      10.304      10.556      11.055      11.790      12.751    
  13.920      15.265      16.732      18.238      19.659      20.660      20.666      19.177      15.988      11.375    
  6.1633      1.5843     -1.1049     -1.1049      7.2363      11.649      15.988      19.323      21.195      21.630    
  21.000      19.821      18.478      17.107      15.792      14.592      13.550      12.696      12.055      11.656    
  11.520      11.656      12.055      12.696      13.550      14.592      15.792      17.107      18.478      19.822    
  21.001      21.631      21.195      19.323      15.988      11.649      7.2363      3.9198      2.6853      3.9198    
  12.386      16.051      19.177      21.195      21.966      21.715      20.857      19.767      18.590      17.403    
  16.263      15.212      14.286      13.525      12.977      12.688      12.688      12.977      13.526      14.286    
  15.212      16.263      17.403      18.590      19.768      20.857      21.715      21.967      21.195      19.177    
  16.050      12.386      9.0968      7.1424      7.1424      9.0969      16.105      18.741      20.666      21.630    
  21.715      21.217      20.454      19.555      18.590      17.605      16.635      15.712      14.878      14.196    
  13.739      13.577      13.739      14.196      14.878      15.712      16.635      17.605      18.590      19.555    
  20.454      21.218      21.715      21.631      20.667      18.741      16.105      13.348      11.244      10.456    
  11.244      13.349      18.007      19.654      20.660      21.000      20.857      20.454      19.890      19.220    
  18.478      17.682      16.850      16.015      15.229      14.592      14.231      14.231      14.592      15.229    
  16.015      16.850      17.682      18.478      19.220      19.890      20.454      20.857      21.001      20.660    
  19.654      18.007      16.015      14.194      13.101      13.101      14.194      16.015      18.228      19.157    
  19.659      19.821      19.767      19.555      19.220      18.781      18.238      17.589      16.835      16.002    
  15.202      14.611      14.392      14.611      15.202      16.002      16.835      17.589      18.238      18.781    
  19.220      19.555      19.768      19.821      19.659      19.157      18.228      16.956      15.613      14.579    
  14.190      14.579      15.613      16.956      17.264      17.845      18.238      18.478      18.590      18.590    
  18.478      18.238      17.845      17.264      16.477      15.577      14.767      14.283      14.283      14.767    
  15.577      16.477      17.264      17.845      18.238      18.478      18.590      18.590      18.478      18.238    
  17.845      17.264      16.477      15.577      14.767      14.283      14.283      14.767      15.577      16.477    
  15.750      16.281      16.732      17.107      17.403      17.605      17.682      17.589      17.264      16.637    
  15.751      14.798      14.057      13.777      14.057      14.798      15.751      16.637      17.264      17.589    
  17.682      17.605      17.403      17.107      16.732      16.281      15.751      15.150      14.510      13.907    
  13.464      13.300      13.464      13.907      14.510      15.150      14.136      14.709      15.265      15.792    
  16.263      16.635      16.850      16.835      16.477      15.751      14.796      13.888      13.333      13.333    
  13.888      14.796      15.751      16.477      16.835      16.850      16.635      16.263      15.792      15.265    
  14.709      14.136      13.557      12.989      12.473      12.070      11.846      11.846      12.070      12.473    
  12.989      13.557      12.586      13.241      13.920      14.592      15.212      15.712      16.015      16.002    
  15.577      14.798      13.888      13.157      12.878      13.157      13.888      14.798      15.577      16.002    
  16.015      15.711      15.212      14.592      13.920      13.241      12.587      11.971      11.407      10.912    
  10.514      10.252      10.160      10.252      10.514      10.912      11.407      11.971      11.201      11.953    
  12.751      13.550      14.286      14.878      15.229      15.202      14.767      14.057      13.333      12.878    
  12.878      13.332      14.057      14.767      15.202      15.228      14.878      14.286      13.550      12.751    
  11.953      11.201      10.518      9.9187      9.4088      8.9993      8.7080      8.5553      8.5553      8.7080    
  8.9993      9.4088      9.9187      10.518      10.035      10.885      11.790      12.696      13.525      14.196    
  14.592      14.611      14.283      13.777      13.333      13.157      13.332      13.777      14.283      14.611    
  14.592      14.196      13.525      12.696      11.790      10.885      10.035      9.2744      8.6186      8.0712    
  7.6336      7.3100      7.1095      7.0413      7.1095      7.3101      7.6336      8.0713      8.6187      9.2745    
  9.1112      10.053      11.055      12.055      12.977      13.739      14.231      14.392      14.283      14.057    
  13.888      13.888      14.057      14.283      14.392      14.231      13.739      12.977      12.055      11.055    
  10.052      9.1112      8.2714      7.5520      6.9562      6.4802      6.1204      5.8770      5.7536      5.7537    
  5.8771      6.1205      6.4803      6.9562      7.5519      8.2714      8.4300      9.4596      10.556      11.656    
  12.688      13.577      14.231      14.611      14.767      14.798      14.796      14.798      14.767      14.611    
  14.231      13.577      12.688      11.656      10.556      9.4595      8.4300      7.5117      6.7265      6.0779    
  5.5591      5.1609      4.8774      4.7068      4.6497      4.7068      4.8776      5.1610      5.5590      6.0778    
  6.7264      7.5117      7.9832      9.1045      10.304      11.520      12.688      13.739      14.592      15.202    
  15.577      15.751      15.751      15.577      15.202      14.592      13.739      12.688      11.520      10.304    
  9.1045      7.9831      6.9839      6.1300      5.4251      4.8604      4.4229      4.1013      3.8888      3.7828    
  3.7828      3.8888      4.1013      4.4228      4.8603      5.4250      6.1300      6.9840      7.7621      8.9862    
  10.304      11.656      12.977      14.196      15.229      16.002      16.477      16.637      16.477      16.002    
  15.228      14.196      12.977      11.656      10.304      8.9863      7.7621      6.6741      5.7448      4.9776    
  4.3623      3.8827      3.5232      3.2723      3.1237      3.0743      3.1236      3.2722      3.5231      3.8826    
  4.3623      4.9776      5.7449      6.6741      7.7621      9.1045      10.556      12.055      13.526      14.878    
  16.015      16.835      17.264      17.264      16.835      16.015      14.878      13.525      12.055      10.556    
  9.1045      7.7621      6.5720      5.5563      4.7172      4.0433      3.5157      3.1153      2.8266      2.6390    
  2.5464      2.5464      2.6389      2.8265      3.1153      3.5157      4.0433      4.7173      5.5562      6.5720    
  7.9832      9.4596      11.055      12.696      14.286      15.712      16.850      17.589      17.845      17.589    
  16.850      15.711      14.286      12.696      11.055      9.4595      7.9831      6.6741      5.5563      4.6318    
  3.8877      3.3030      2.8554      2.5258      2.2997      2.1675      2.1240      2.1675      2.2996      2.5258    
  2.8555      3.3030      3.8878      4.6318      5.5563      6.6741      8.4300      10.053      11.790      13.550    
  15.212      16.635      17.682      18.238      18.238      17.682      16.635      15.212      13.550      11.790    
  10.052      8.4300      6.9839      5.7448      4.7172      3.8877      3.2333      2.7290      2.3521      2.0846    
  1.9133      1.8297      1.8297      1.9132      2.0846      2.3521      2.7290      3.2334      3.8877      4.7173    
  5.7449      6.9840      9.1112      10.885      12.751      14.592      16.263      17.605      18.478      18.781    
  18.478      17.605      16.263      14.592      12.751      10.885      9.1112      7.5117      6.1300      4.9776    
  4.0433      3.3030      2.7290      2.2952      1.9802      1.7670      1.6440      1.6038      1.6440      1.7671    
  1.9802      2.2953      2.7290      3.3030      4.0433      4.9776      6.1300      7.5117      10.035      11.953    
  13.920      15.792      17.403      18.590      19.220      19.220      18.590      17.403      15.792      13.920    
  11.953      10.035      8.2714      6.7265      5.4251      4.3623      3.5157      2.8554      2.3521      1.9802    
  1.7193      1.5542      1.4744      1.4744      1.5543      1.7194      1.9802      2.3521      2.8555      3.5157    
  4.3622      5.4250      6.7264      8.2713      11.201      13.241      15.265      17.107      18.590      19.555    
  19.890      19.555      18.590      17.107      15.265      13.241      11.201      9.2744      7.5520      6.0779    
  4.8604      3.8827      3.1153      2.5258      2.0846      1.7670      1.5542      1.4323      1.3926      1.4323    
  1.5543      1.7671      2.0846      2.5258      3.1153      3.8826      4.8603      6.0778      7.5519      9.2745    
  12.587      14.709      16.732      18.478      19.768      20.454      20.454      19.768      18.478      16.732    
  14.709      12.587      10.518      8.6186      6.9562      5.5591      4.4229      3.5232      2.8266      2.2997    
  1.9133      1.6440      1.4744      1.3926      1.3926      1.4744      1.6440      1.9132      2.2996      2.8265    
  3.5231      4.4228      5.5590      6.9562      8.6187      10.518      14.137      16.281      18.238      19.822    
  20.857      21.218      20.857      19.821      18.238      16.281      14.136      11.971      9.9187      8.0712    
  6.4802      5.1609      4.1013      3.2723      2.6390      2.1675      1.8297      1.6038      1.4744      1.4323    
  1.4744      1.6038      1.8297      2.1675      2.6389      3.2723      4.1013      5.1610      6.4803      8.0713    
  9.9188      11.971      15.751      17.845      19.659      21.001      21.715      21.715      21.001      19.659    
  17.845      15.751      13.557      11.407      9.4088      7.6336      6.1204      4.8774      3.8888      3.1237    
  2.5464      2.1240      1.8297      1.6440      1.5543      1.5543      1.6440      1.8297      2.1240      2.5464    
  3.1236      3.8889      4.8776      6.1205      7.6336      9.4088      11.407      13.557      17.264      19.157    
  20.660      21.631      21.967      21.631      20.660      19.157      17.264      15.150      12.989      10.912    
  8.9993      7.3100      5.8770      4.7068      3.7828      3.0743      2.5464      2.1675      1.9132      1.7671    
  1.7194      1.7671      1.9132      2.1675      2.5464      3.0743      3.7829      4.7069      5.8771      7.3100    
  8.9993      10.912      12.989      15.150      18.228      19.653      20.666      21.195      21.195      20.667    
  19.654      18.228      16.477      14.510      12.473      10.514      8.7080      7.1095      5.7536      4.6497    
  3.7828      3.1236      2.6389      2.2996      2.0846      1.9802      1.9802      2.0846      2.2996      2.6389    
  3.1236      3.7829      4.6497      5.7537      7.1095      8.7079      10.514      12.473      14.510      16.477    
  18.006      18.741      19.177      19.323      19.177      18.741      18.007      16.956      15.577      13.907    
  12.070      10.252      8.5553      7.0413      5.7537      4.7068      3.8888      3.2722      2.8265      2.5258    
  2.3521      2.2953      2.3521      2.5258      2.8265      3.2723      3.8889      4.7069      5.7537      7.0413    
  8.5552      10.252      12.070      13.907      15.577      16.956      16.104      16.050      15.988      15.988    
  16.050      16.105      16.015      15.613      14.767      13.464      11.846      10.160      8.5553      7.1095    
  5.8771      4.8776      4.1013      3.5231      3.1153      2.8555      2.7290      2.7290      2.8555      3.1153    
  3.5231      4.1013      4.8776      5.8771      7.1095      8.5552      10.160      11.846      13.464      14.767    
  15.613      16.015      12.386      11.649      11.375      11.649      12.386      13.348      14.194      14.579    
  14.283      13.300      11.846      10.252      8.7080      7.3101      6.1205      5.1610      4.4228      3.8826    
  3.5157      3.3030      3.2334      3.3030      3.5157      3.8826      4.4228      5.1610      6.1205      7.3100    
  8.7079      10.252      11.846      13.300      14.283      14.579      14.194      13.348      7.2362      6.1633    