unknown system                          
   1.00000000000000     
     0.000000    2.734299    2.734299
     2.734299    0.000000    2.734299
     2.734299    2.734299    0.000000
   Si
     2
Direct
  0.000000  0.000000  0.000000
  0.250000  0.250000  0.250000
 
   36   36   36
 -.75222988780E+01 -.61072587209E+01 -.22439079568E+01 0.30636637581E+01 0.85454312775E+01
 0.13072999591E+02 0.15955164369E+02 0.17039812349E+02 0.16637134609E+02 0.15332371036E+02
 0.13733083742E+02 0.12133973203E+02 0.10664813872E+02 0.94043840028E+01 0.83867753505E+01
 0.76157333330E+01 0.70800784536E+01 0.67655963004E+01 0.66619904603E+01 0.67656327185E+01
 0.70801122283E+01 0.76157318009E+01 0.83867475583E+01 0.94043737457E+01 0.10664867997E+02
 0.12134104369E+02 0.13733232785E+02 0.15332403184E+02 0.16636916038E+02 0.17039333377E+02
 0.15954586409E+02 0.13072552407E+02 0.85452467399E+01 0.30637042456E+01 -.22437792818E+01
 -.61071650255E+01 -.61072587209E+01 -.32829673870E+01 0.15843678692E+01 0.72362911554E+01
 0.12386284262E+02 0.16104933006E+02 0.18006829254E+02 0.18228101735E+02 0.17264448382E+02
 0.15750484561E+02 0.14136324322E+02 0.12586425702E+02 0.11200562954E+02 0.10034882510E+02
 0.91111789572E+01 0.84300269247E+01 0.79831510228E+01 0.77620691272E+01 0.77620906196E+01
 0.79831913620E+01 0.84300429354E+01 0.91111574439E+01 0.10034853724E+02 0.11200578191E+02
 0.12586526544E+02 0.14136502410E+02 0.15750644197E+02 0.17264433351E+02 0.18227817729E+02
 0.18006356843E+02 0.16104486344E+02 0.12386029062E+02 0.72362181239E+01 0.15843570521E+01
 -.32829916099E+01 -.61072761409E+01 -.22439079568E+01 0.15843678692E+01 0.67579969757E+01
 0.11973651173E+02 0.16139160595E+02 0.18652743306E+02 0.19454813302E+02 0.18906841364E+02
 0.17588684617E+02 0.16040365681E+02 0.14487331487E+02 0.13040708089E+02 0.11772731585E+02
 0.10722307806E+02 0.99046320089E+01 0.93221052035E+01 0.89732319592E+01 0.88570084717E+01
 0.89732615509E+01 0.93221318501E+01 0.99046289071E+01 0.10722281313E+02 0.11772715577E+02
 0.13040746106E+02 0.14487453782E+02 0.16040550593E+02 0.17588835899E+02 0.18906839776E+02
 0.19454624395E+02 0.18652464367E+02 0.16138937770E+02 0.11973550816E+02 0.67579755332E+01
 0.15843564038E+01 -.22439248307E+01 -.36579968860E+01 0.30636637581E+01 0.72362911554E+01
 0.11973651173E+02 0.16141388813E+02 0.18977721693E+02 0.20232124888E+02 0.20105133550E+02
 0.19075441991E+02 0.17682007804E+02 0.16214841956E+02 0.14790397515E+02 0.13488868583E+02
 0.12361108557E+02 0.11435751983E+02 0.10728144504E+02 0.10248497191E+02 0.10005681867E+02
 0.10005693517E+02 0.10248520588E+02 0.10728158814E+02 0.11435748541E+02 0.12361095725E+02
 0.13488867900E+02 0.14790440878E+02 0.16214954870E+02 0.17682175165E+02 0.19075598111E+02
 0.20105204596E+02 0.20232088411E+02 0.18977621714E+02 0.16141298294E+02 0.11973622322E+02
 0.72363277210E+01 0.30637241006E+01 0.61087574815E+00 0.61084721133E+00 0.85454312775E+01
 0.12386284262E+02 0.16139160595E+02 0.18977721693E+02 0.20498897928E+02 0.20738355309E+02
 0.20045129671E+02 0.18895069512E+02 0.17605191192E+02 0.16295050091E+02 0.15045243581E+02
 0.13911103912E+02 0.12929401460E+02 0.12126423560E+02 0.11525790223E+02 0.11151617620E+02
 0.11024181386E+02 0.11151631233E+02 0.11525810165E+02 0.12126443672E+02 0.12929417645E+02
 0.13911112291E+02 0.15045251070E+02 0.16295084636E+02 0.17605284357E+02 0.18895221503E+02
 0.20045298770E+02 0.20738482318E+02 0.20498939792E+02 0.18977674119E+02 0.16139063389E+02
 0.12386199625E+02 0.85453958796E+01 0.56510493486E+01 0.45727371512E+01 0.56510503511E+01
 0.13072999591E+02 0.16104933006E+02 0.18652743306E+02 0.20232124888E+02 0.20738355309E+02
 0.20382177714E+02 0.19541245014E+02 0.18509777707E+02 0.17402688131E+02 0.16295050402E+02
 0.15239258774E+02 0.14272499593E+02 0.13425650220E+02 0.12732438910E+02 0.12233620297E+02
 0.11970641827E+02 0.11970651611E+02 0.12233645319E+02 0.12732473550E+02 0.13425691836E+02
 0.14272539686E+02 0.15239282167E+02 0.16295059098E+02 0.17402715277E+02 0.18509860397E+02
 0.19541382422E+02 0.20382326396E+02 0.20738457428E+02 0.20232132838E+02 0.18652631588E+02
 0.16104711891E+02 0.13072729594E+02 0.10333200119E+02 0.87012027881E+01 0.87012888121E+01
 0.10333422573E+02 0.15955164369E+02 0.18006829254E+02 0.19454813302E+02 0.20105133550E+02
 0.20045129671E+02 0.19541245014E+02 0.18823917928E+02 0.17990806766E+02 0.17106603572E+02
 0.16214841255E+02 0.15345477377E+02 0.14525246003E+02 0.13789808388E+02 0.13191690305E+02
 0.12794873311E+02 0.12654943431E+02 0.12794915359E+02 0.13191749519E+02 0.13789867731E+02
 0.14525305670E+02 0.15345531504E+02 0.16214874682E+02 0.17106621866E+02 0.17990845021E+02
 0.18824000157E+02 0.19541346873E+02 0.20045199444E+02 0.20105135176E+02 0.19454728067E+02
 0.18006637360E+02 0.15954864053E+02 0.13777864831E+02 0.12105187773E+02 0.11476703174E+02
 0.12105418471E+02 0.13778202380E+02 0.17039812349E+02 0.18228101735E+02 0.18906841364E+02
 0.19075441991E+02 0.18895069512E+02 0.18509777707E+02 0.17990806766E+02 0.17388110860E+02
 0.16732258549E+02 0.16040362929E+02 0.15326909083E+02 0.14619050494E+02 0.13968231257E+02
 0.13450375887E+02 0.13158658175E+02 0.13158704703E+02 0.13450478593E+02 0.13968325467E+02
 0.14619115254E+02 0.15326965927E+02 0.16040424358E+02 0.16732316672E+02 0.17388170070E+02
 0.17990885439E+02 0.18509867979E+02 0.18895121737E+02 0.19075412857E+02 0.18906739990E+02
 0.18227966875E+02 0.17039666282E+02 0.15561708039E+02 0.14192124097E+02 0.13365418034E+02
 0.13365470805E+02 0.14192253277E+02 0.15561859672E+02 0.16637134609E+02 0.17264448382E+02
 0.17588684617E+02 0.17682007804E+02 0.17605191192E+02 0.17402688131E+02 0.17106603572E+02
 0.16732258549E+02 0.16281150730E+02 0.15750482863E+02 0.15149741543E+02 0.14510283813E+02
 0.13906750990E+02 0.13464061423E+02 0.13300418856E+02 0.13464185973E+02 0.13906899579E+02
 0.14510368697E+02 0.15149768438E+02 0.15750513874E+02 0.16281222452E+02 0.16732366673E+02
 0.17106735473E+02 0.17402830305E+02 0.17605306807E+02 0.17682042341E+02 0.17588615554E+02
 0.17264327056E+02 0.16637055875E+02 0.15751118719E+02 0.14798160996E+02 0.14057395339E+02
 0.13777303126E+02 0.14057303236E+02 0.14798056781E+02 0.15751093606E+02 0.15332371036E+02
 0.15750484561E+02 0.16040365681E+02 0.16214841956E+02 0.16295050091E+02 0.16295050402E+02
 0.16214841255E+02 0.16040362929E+02 0.15750482863E+02 0.15332373010E+02 0.14787340623E+02
 0.14168288224E+02 0.13610071944E+02 0.13275670480E+02 0.13275754494E+02 0.13610250902E+02
 0.14168420712E+02 0.14787357974E+02 0.15332326661E+02 0.15750471515E+02 0.16040439651E+02
 0.16214996304E+02 0.16295244887E+02 0.16295243880E+02 0.16214995344E+02 0.16040440817E+02
 0.15750472792E+02 0.15332325992E+02 0.14787357302E+02 0.14168421847E+02 0.13610251461E+02
 0.13275752109E+02 0.13275667087E+02 0.13610069848E+02 0.14168286038E+02 0.14787337168E+02
 0.13733083742E+02 0.14136324322E+02 0.14487331487E+02 0.14790397515E+02 0.15045243581E+02
 0.15239258774E+02 0.15345477377E+02 0.15326909083E+02 0.15149741543E+02 0.14787340623E+02
 0.14252541387E+02 0.13660163395E+02 0.13191956856E+02 0.13013679859E+02 0.13192106791E+02
 0.13660338771E+02 0.14252609943E+02 0.14787272997E+02 0.15149619307E+02 0.15326845409E+02
 0.15345530513E+02 0.15239410011E+02 0.15045433618E+02 0.14790581514E+02 0.14487494123E+02
 0.14136454916E+02 0.13733168829E+02 0.13282445514E+02 0.12813583945E+02 0.12385052277E+02
 0.12075682504E+02 0.11961903597E+02 0.12075606871E+02 0.12384963759E+02 0.12813525759E+02
 0.13282395340E+02 0.12133973203E+02 0.12586425702E+02 0.13040708089E+02 0.13488868583E+02
 0.13911103912E+02 0.14272499593E+02 0.14525246003E+02 0.14619050494E+02 0.14510283813E+02
 0.14168288224E+02 0.13660163395E+02 0.13150405786E+02 0.12831356171E+02 0.12831431569E+02
 0.13150575294E+02 0.13660302982E+02 0.14168301890E+02 0.14510166053E+02 0.14618882572E+02
 0.14525134057E+02 0.14272499362E+02 0.13911190878E+02 0.13488977416E+02 0.13040805755E+02
 0.12586528272E+02 0.12134095804E+02 0.11687280472E+02 0.11256657485E+02 0.10869068937E+02
 0.10568139747E+02 0.10401784063E+02 0.10401785648E+02 0.10568136737E+02 0.10869038709E+02
 0.11256578642E+02 0.11687161174E+02 0.10664813872E+02 0.11200562954E+02 0.11772731585E+02
 0.12361108557E+02 0.12929401460E+02 0.13425650220E+02 0.13789808388E+02 0.13968231257E+02
 0.13906750990E+02 0.13610071944E+02 0.13191956856E+02 0.12831356171E+02 0.12689653744E+02
 0.12831463872E+02 0.13192108255E+02 0.13610178825E+02 0.13906750597E+02 0.13968118887E+02
 0.13789643276E+02 0.13425517601E+02 0.12929350958E+02 0.12361118568E+02 0.11772743455E+02
 0.11200551457E+02 0.10664806150E+02 0.10174049467E+02 0.97327868945E+01 0.93502302790E+01
 0.90457049899E+01 0.88462807516E+01 0.87764974660E+01 0.88463021492E+01 0.90457148959E+01
 0.93502035529E+01 0.97327402208E+01 0.10174023274E+02 0.94043840028E+01 0.10034882510E+02
 0.10722307806E+02 0.11435751983E+02 0.12126423560E+02 0.12732438910E+02 0.13191690305E+02
 0.13450375887E+02 0.13464061423E+02 0.13275670480E+02 0.13013679859E+02 0.12831431569E+02
 0.12831463872E+02 0.13013765926E+02 0.13275779118E+02 0.13464148916E+02 0.13450398771E+02
 0.13191630748E+02 0.12732322629E+02 0.12126308137E+02 0.11435684455E+02 0.10722285132E+02
 0.10034861536E+02 0.94043279084E+01 0.88453812604E+01 0.83622479636E+01 0.79563450430E+01
 0.76330313865E+01 0.74041348752E+01 0.72844843905E+01 0.72845009375E+01 0.74041784241E+01
 0.76330930574E+01 0.79564238888E+01 0.83623415475E+01 0.88454699007E+01 0.83867753505E+01
 0.91111789572E+01 0.99046320089E+01 0.10728144504E+02 0.11525790223E+02 0.12233620297E+02
 0.12794873311E+02 0.13158658175E+02 0.13300418856E+02 0.13275754494E+02 0.13192106791E+02
 0.13150575294E+02 0.13192108255E+02 0.13275779118E+02 0.13300482486E+02 0.13158746536E+02
 0.12794946611E+02 0.12233639985E+02 0.11525745111E+02 0.10728065933E+02 0.99045741419E+01
 0.91111751717E+01 0.83868040392E+01 0.77518446176E+01 0.72121599068E+01 0.67660514164E+01
 0.64113409431E+01 0.61499551905E+01 0.59882439338E+01 0.59333274927E+01 0.59883067060E+01
 0.61500771694E+01 0.64114982715E+01 0.67661933890E+01 0.72122354821E+01 0.77518449953E+01
 0.76157333330E+01 0.84300269247E+01 0.93221052035E+01 0.10248497191E+02 0.11151617620E+02
 0.11970641827E+02 0.12654943431E+02 0.13158704703E+02 0.13464185973E+02 0.13610250902E+02
 0.13660338771E+02 0.13660302982E+02 0.13610178825E+02 0.13464148916E+02 0.13158746536E+02
 0.12655054458E+02 0.11970775503E+02 0.11151715553E+02 0.10248518588E+02 0.93220593492E+01
 0.84299799091E+01 0.76157570025E+01 0.69041126239E+01 0.63028771572E+01 0.58090770327E+01
 0.54161506088E+01 0.51195467358E+01 0.49190162752E+01 0.48174044624E+01 0.48174447533E+01
 0.49191250004E+01 0.51196802318E+01 0.54162371088E+01 0.58090620426E+01 0.63027779461E+01
 0.69040137240E+01 0.70800784536E+01 0.79831510228E+01 0.89732319592E+01 0.10005681867E+02
 0.11024181386E+02 0.11970651611E+02 0.12794915359E+02 0.13450478593E+02 0.13906899579E+02
 0.14168420712E+02 0.14252609943E+02 0.14168301890E+02 0.13906750597E+02 0.13450398771E+02
 0.12794946611E+02 0.11970775503E+02 0.11024347260E+02 0.10005826412E+02 0.89732983206E+01
 0.79831301788E+01 0.70800326833E+01 0.62911247057E+01 0.56258340661E+01 0.50806762487E+01
 0.46461914476E+01 0.43131259429E+01 0.40759283514E+01 0.39331000407E+01 0.38853222311E+01
 0.39331433242E+01 0.40759718134E+01 0.43131090353E+01 0.46460854540E+01 0.50805223724E+01
 0.56257203664E+01 0.62911068805E+01 0.67655963004E+01 0.77620691272E+01 0.88570084717E+01
 0.10005693517E+02 0.11151631233E+02 0.12233645319E+02 0.13191749519E+02 0.13968325467E+02
 0.14510368697E+02 0.14787357974E+02 0.14787272997E+02 0.14510166053E+02 0.13968118887E+02
 0.13191630748E+02 0.12233639985E+02 0.11151715553E+02 0.10005826412E+02 0.88571408184E+01
 0.77621489914E+01 0.67655977561E+01 0.58953558970E+01 0.51616336883E+01 0.45606808076E+01
 0.40810595040E+01 0.37099015203E+01 0.34371457326E+01 0.32570065792E+01 0.31671931922E+01
 0.31671879840E+01 0.32569741677E+01 0.34370586566E+01 0.37097658908E+01 0.40809296181E+01
 0.45606196475E+01 0.51616532388E+01 0.58954016391E+01 0.66619904603E+01 0.77620906196E+01
 0.89732615509E+01 0.10248520588E+02 0.11525810165E+02 0.12732473550E+02 0.13789867731E+02
 0.14619115254E+02 0.15149768438E+02 0.15332326661E+02 0.15149619307E+02 0.14618882572E+02
 0.13789643276E+02 0.12732322629E+02 0.11525745111E+02 0.10248518588E+02 0.89732983206E+01
 0.77621489914E+01 0.66620436780E+01 0.57017047586E+01 0.48916072382E+01 0.42275934361E+01
 0.36967584237E+01 0.32834919089E+01 0.29739601639E+01 0.27582841409E+01 0.26306633326E+01
 0.25883615909E+01 0.26306136299E+01 0.27581909938E+01 0.29738553880E+01 0.32834283910E+01
 0.36967671005E+01 0.42276484568E+01 0.48916480037E+01 0.57016928548E+01 0.67656327185E+01
 0.79831913620E+01 0.93221318501E+01 0.10728158814E+02 0.12126443672E+02 0.13425691836E+02
 0.14525305670E+02 0.15326965927E+02 0.15750513874E+02 0.15750471515E+02 0.15326845409E+02
 0.14525134057E+02 0.13425517601E+02 0.12126308137E+02 0.10728065933E+02 0.93220593492E+01
 0.79831301788E+01 0.67655977561E+01 0.57017047586E+01 0.48030855977E+01 0.40652855230E+01
 0.34740684462E+01 0.30115801316E+01 0.26608969273E+01 0.24084830552E+01 0.22448864297E+01
 0.21643910423E+01 0.21643657665E+01 0.22448257930E+01 0.24084276510E+01 0.26608899195E+01
 0.30116301835E+01 0.34741370131E+01 0.40653249583E+01 0.48030894869E+01 0.57017089160E+01
 0.70801122283E+01 0.84300429354E+01 0.99046289071E+01 0.11435748541E+02 0.12929417645E+02
 0.14272539686E+02 0.15345531504E+02 0.16040424358E+02 0.16281222452E+02 0.16040439651E+02
 0.15345530513E+02 0.14272499362E+02 0.12929350958E+02 0.11435684455E+02 0.99045741419E+01
 0.84299799091E+01 0.70800326833E+01 0.58953558970E+01 0.48916072382E+01 0.40652855230E+01
 0.34011624214E+01 0.28792708273E+01 0.24799114610E+01 0.21863156680E+01 0.19855643378E+01
 0.18686385836E+01 0.18302343237E+01 0.18686141003E+01 0.19855465412E+01 0.21863365114E+01
 0.24799713258E+01 0.28793387376E+01 0.34012116946E+01 0.40653232684E+01 0.48916606301E+01
 0.58954329935E+01 0.76157318009E+01 0.91111574439E+01 0.10722281313E+02 0.12361095725E+02
 0.13911112291E+02 0.15239282167E+02 0.16214874682E+02 0.16732316672E+02 0.16732366673E+02
 0.16214996304E+02 0.15239410011E+02 0.13911190878E+02 0.12361118568E+02 0.10722285132E+02
 0.91111751717E+01 0.76157570025E+01 0.62911247057E+01 0.51616336883E+01 0.42275934361E+01
 0.34740684462E+01 0.28792708273E+01 0.24206912281E+01 0.20783990037E+01 0.18361839458E+01
 0.16817208395E+01 0.16066221702E+01 0.16066193765E+01 0.16817243996E+01 0.18362129797E+01
 0.20784535298E+01 0.24207531412E+01 0.28793279819E+01 0.34741238249E+01 0.42276465142E+01
 0.51616666590E+01 0.62911220751E+01 0.83867475583E+01 0.10034853724E+02 0.11772715577E+02
 0.13488867900E+02 0.15045251070E+02 0.16295059098E+02 0.17106621866E+02 0.17388170070E+02
 0.17106735473E+02 0.16295244887E+02 0.15045433618E+02 0.13488977416E+02 0.11772743455E+02
 0.10034861536E+02 0.83868040392E+01 0.69041126239E+01 0.56258340661E+01 0.45606808076E+01
 0.36967584237E+01 0.30115801316E+01 0.24799114610E+01 0.20783990037E+01 0.17873943374E+01
 0.15912637175E+01 0.14784237135E+01 0.14416387131E+01 0.14784365548E+01 0.15912928642E+01
 0.17874367187E+01 0.20784447233E+01 0.24799533629E+01 0.30116109737E+01 0.36967574233E+01
 0.45606218050E+01 0.56257226275E+01 0.69040013500E+01 0.94043737457E+01 0.11200578191E+02
 0.13040746106E+02 0.14790440878E+02 0.16295084636E+02 0.17402715277E+02 0.17990845021E+02
 0.17990885439E+02 0.17402830305E+02 0.16295243880E+02 0.14790581514E+02 0.13040805755E+02
 0.11200551457E+02 0.94043279084E+01 0.77518446176E+01 0.63028771572E+01 0.50806762487E+01
 0.40810595040E+01 0.32834919089E+01 0.26608969273E+01 0.21863156680E+01 0.18361839458E+01
 0.15912637175E+01 0.14366831503E+01 0.13620889245E+01 0.13620992701E+01 0.14367086586E+01
 0.15912917279E+01 0.18362032198E+01 0.21863195130E+01 0.26608748143E+01 0.32834240415E+01
 0.40809355980E+01 0.50805267170E+01 0.63027689619E+01 0.77518258397E+01 0.10664867997E+02
 0.12586526544E+02 0.14487453782E+02 0.16214954870E+02 0.17605284357E+02 0.18509860397E+02
 0.18824000157E+02 0.18509867979E+02 0.17605306807E+02 0.16214995344E+02 0.14487494123E+02
 0.12586528272E+02 0.10664806150E+02 0.88453812604E+01 0.72121599068E+01 0.58090770327E+01
 0.46461914476E+01 0.37099015203E+01 0.29739601639E+01 0.24084830552E+01 0.19855643378E+01
 0.16817208395E+01 0.14784237135E+01 0.13620889245E+01 0.13242795075E+01 0.13621064511E+01
 0.14784414326E+01 0.16817201278E+01 0.19855356194E+01 0.24084208838E+01 0.29738618126E+01
 0.37097830138E+01 0.46460992038E+01 0.58090617926E+01 0.72122283138E+01 0.88454805250E+01
 0.12134104369E+02 0.14136502410E+02 0.16040550593E+02 0.17682175165E+02 0.18895221503E+02
 0.19541382422E+02 0.19541346873E+02 0.18895121737E+02 0.17682042341E+02 0.16040440817E+02
 0.14136454916E+02 0.12134095804E+02 0.10174049467E+02 0.83622479636E+01 0.67660514164E+01
 0.54161506088E+01 0.43131259429E+01 0.34371457326E+01 0.27582841409E+01 0.22448864297E+01
 0.18686385836E+01 0.16066221702E+01 0.14416387131E+01 0.13620992701E+01 0.13621064511E+01
 0.14416501631E+01 0.16066177603E+01 0.18686048580E+01 0.22448228347E+01 0.27582047892E+01
 0.34370847532E+01 0.43131290880E+01 0.54162377194E+01 0.67661838163E+01 0.83623517158E+01
 0.10174086847E+02 0.13733232785E+02 0.15750644197E+02 0.17588835899E+02 0.19075598111E+02
 0.20045298770E+02 0.20382326396E+02 0.20045199444E+02 0.19075412857E+02 0.17588615554E+02
 0.15750472792E+02 0.13733168829E+02 0.11687280472E+02 0.97327868945E+01 0.79563450430E+01
 0.64113409431E+01 0.51195467358E+01 0.40759283514E+01 0.32570065792E+01 0.26306633326E+01
 0.21643910423E+01 0.18302343237E+01 0.16066193765E+01 0.14784365548E+01 0.14367086586E+01
 0.14784414326E+01 0.16066177603E+01 0.18302144909E+01 0.21643530969E+01 0.26306264033E+01
 0.32570065116E+01 0.40759967921E+01 0.51196756605E+01 0.64114702683E+01 0.79564055731E+01
 0.97327708957E+01 0.11687260296E+02 0.15332403184E+02 0.17264433351E+02 0.18906839776E+02
 0.20105204596E+02 0.20738482318E+02 0.20738457428E+02 0.20105135176E+02 0.18906739990E+02
 0.17264327056E+02 0.15332325992E+02 0.13282445514E+02 0.11256657485E+02 0.93502302790E+01
 0.76330313865E+01 0.61499551905E+01 0.49190162752E+01 0.39331000407E+01 0.31671931922E+01
 0.25883615909E+01 0.21643657665E+01 0.18686141003E+01 0.16817243996E+01 0.15912928642E+01
 0.15912917279E+01 0.16817201278E+01 0.18686048580E+01 0.21643530969E+01 0.25883588934E+01
 0.31672249972E+01 0.39331810349E+01 0.49191239871E+01 0.61500346227E+01 0.76330402700E+01
 0.93501836251E+01 0.11256615780E+02 0.13282460723E+02 0.16636916038E+02 0.18227817729E+02
 0.19454624395E+02 0.20232088411E+02 0.20498939792E+02 0.20232132838E+02 0.19454728067E+02
 0.18227966875E+02 0.16637055875E+02 0.14787357302E+02 0.12813583945E+02 0.10869068937E+02
 0.90457049899E+01 0.74041348752E+01 0.59882439338E+01 0.48174044624E+01 0.38853222311E+01
 0.31671879840E+01 0.26306136299E+01 0.22448257930E+01 0.19855465412E+01 0.18362129797E+01
 0.17874367187E+01 0.18362032198E+01 0.19855356194E+01 0.22448228347E+01 0.26306264033E+01
 0.31672249972E+01 0.38853833190E+01 0.48174660413E+01 0.59882702580E+01 0.74041141274E+01
 0.90456645681E+01 0.10869036757E+02 0.12813546895E+02 0.14787273423E+02 0.17039333377E+02
 0.18006356843E+02 0.18652464367E+02 0.18977621714E+02 0.18977674119E+02 0.18652631588E+02
 0.18006637360E+02 0.17039666282E+02 0.15751118719E+02 0.14168421847E+02 0.12385052277E+02
 0.10568139747E+02 0.88462807516E+01 0.72844843905E+01 0.59333274927E+01 0.48174447533E+01
 0.39331433242E+01 0.32569741677E+01 0.27581909938E+01 0.24084276510E+01 0.21863365114E+01
 0.20784535298E+01 0.20784447233E+01 0.21863195130E+01 0.24084208838E+01 0.27582047892E+01
 0.32570065116E+01 0.39331810349E+01 0.48174660413E+01 0.59333154451E+01 0.72844496981E+01
 0.88462558586E+01 0.10568132106E+02 0.12385009754E+02 0.14168268949E+02 0.15750839298E+02
 0.15954586409E+02 0.16104486344E+02 0.16138937770E+02 0.16141298294E+02 0.16139063389E+02
 0.16104711891E+02 0.15954864053E+02 0.15561708039E+02 0.14798160996E+02 0.13610251461E+02
 0.12075682504E+02 0.10401784063E+02 0.87764974660E+01 0.72845009375E+01 0.59883067060E+01
 0.49191250004E+01 0.40759718134E+01 0.34370586566E+01 0.29738553880E+01 0.26608899195E+01
 0.24799713258E+01 0.24207531412E+01 0.24799533629E+01 0.26608748143E+01 0.29738618126E+01
 0.34370847532E+01 0.40759967921E+01 0.49191239871E+01 0.59882702580E+01 0.72844496981E+01
 0.87764694696E+01 0.10401791879E+02 0.12075683851E+02 0.13610177177E+02 0.14797977527E+02
 0.15561444089E+02 0.13072552407E+02 0.12386029062E+02 0.11973550816E+02 0.11973622322E+02
 0.12386199625E+02 0.13072729594E+02 0.13777864831E+02 0.14192124097E+02 0.14057395339E+02
 0.13275752109E+02 0.11961903597E+02 0.10401785648E+02 0.88463021492E+01 0.74041784241E+01
 0.61500771694E+01 0.51196802318E+01 0.43131090353E+01 0.37097658908E+01 0.32834283910E+01
 0.30116301835E+01 0.28793387376E+01 0.28793279819E+01 0.30116109737E+01 0.32834240415E+01
 0.37097830138E+01 0.43131290880E+01 0.51196756605E+01 0.61500346227E+01 0.74041141274E+01
 0.88462558586E+01 0.10401791879E+02 0.11961961180E+02 0.13275824256E+02 0.14057435244E+02
 0.14192095547E+02 0.13777751976E+02 0.85452467399E+01 0.72362181239E+01 0.67579755332E+01
 0.72363277210E+01 0.85453958796E+01 0.10333200119E+02 0.12105187773E+02 0.13365418034E+02
 0.13777303126E+02 0.13275667087E+02 0.12075606871E+02 0.10568136737E+02 0.90457148959E+01
 0.76330930574E+01 0.64114982715E+01 0.54162371088E+01 0.46460854540E+01 0.40809296181E+01
 0.36967671005E+01 0.34741370131E+01 0.34012116946E+01 0.34741238249E+01 0.36967574233E+01
 0.40809355980E+01 0.46460992038E+01 0.54162377194E+01 0.64114702683E+01 0.76330402700E+01
 0.90456645681E+01 0.10568132106E+02 0.12075683851E+02 0.13275824256E+02 0.13777489177E+02
 0.13365553571E+02 0.12105211001E+02 0.10333106390E+02 0.30637042456E+01 0.15843570521E+01
 0.15843564038E+01 0.30637241006E+01 0.56510493486E+01 0.87012027881E+01 0.11476703174E+02
 0.13365470805E+02 0.14057303236E+02 0.13610069848E+02 0.12384963759E+02 0.10869038709E+02
 0.93502035529E+01 0.79564238888E+01 0.67661933890E+01 0.58090620426E+01 0.50805223724E+01
 0.45606196475E+01 0.42276484568E+01 0.40653249583E+01 0.40653232684E+01 0.42276465142E+01
 0.45606218050E+01 0.50805267170E+01 0.58090617926E+01 0.67661838163E+01 0.79564055731E+01
 0.93501836251E+01 0.10869036757E+02 0.12385009754E+02 0.13610177177E+02 0.14057435244E+02
 0.13365553571E+02 0.11476691720E+02 0.87011290652E+01 0.56509857193E+01 -.22437792818E+01
 -.32829916099E+01 -.22439248307E+01 0.61087574815E+00 0.45727371512E+01 0.87012888121E+01
 0.12105418471E+02 0.14192253277E+02 0.14798056781E+02 0.14168286038E+02 0.12813525759E+02
 0.11256578642E+02 0.97327402208E+01 0.83623415475E+01 0.72122354821E+01 0.63027779461E+01
 0.56257203664E+01 0.51616532388E+01 0.48916480037E+01 0.48030894869E+01 0.48916606301E+01
 0.51616666590E+01 0.56257226275E+01 0.63027689619E+01 0.72122283138E+01 0.83623517158E+01
 0.97327708957E+01 0.11256615780E+02 0.12813546895E+02 0.14168268949E+02 0.14797977527E+02
 0.14192095547E+02 0.12105211001E+02 0.87011290652E+01 0.45727295627E+01 0.61101591806E+00
 -.61071650255E+01 -.61072761409E+01 -.36579968860E+01 0.61084721133E+00 0.56510503511E+01
 0.10333422573E+02 0.13778202380E+02 0.15561859672E+02 0.15751093606E+02 0.14787337168E+02
 0.13282395340E+02 0.11687161174E+02 0.10174023274E+02 0.88454699007E+01 0.77518449953E+01
 0.69040137240E+01 0.62911068805E+01 0.58954016391E+01 0.57016928548E+01 0.57017089160E+01
 0.58954329935E+01 0.62911220751E+01 0.69040013500E+01 0.77518258397E+01 0.88454805250E+01
 0.10174086847E+02 0.11687260296E+02 0.13282460723E+02 0.14787273423E+02 0.15750839298E+02
 0.15561444089E+02 0.13777751976E+02 0.10333106390E+02 0.56509857193E+01 0.61101591806E+00
 -.36577555605E+01 -.61072580724E+01 -.32829697847E+01 0.15843652403E+01 0.72362903109E+01
 0.12386283916E+02 0.16104932427E+02 0.18006830121E+02 0.18228104097E+02 0.17264449178E+02
 0.15750482395E+02 0.14136321598E+02 0.12586424101E+02 0.11200561058E+02 0.10034879802E+02
 0.91111777062E+01 0.84300279431E+01 0.79831518409E+01 0.77620684655E+01 0.77620904685E+01
 0.79831926657E+01 0.84300435512E+01 0.91111564133E+01 0.10034853241E+02 0.11200579271E+02
 0.12586527022E+02 0.14136501263E+02 0.15750643570E+02 0.17264434278E+02 0.18227818176E+02
 0.18006356033E+02 0.16104486709E+02 0.12386031803E+02 0.72362210622E+01 0.15843588372E+01
 -.32829894758E+01 -.61072734128E+01 -.32829697847E+01 0.73258516137E+00 0.61633810132E+01
 0.11648848975E+02 0.16050563406E+02 0.18740883864E+02 0.19653631107E+02 0.19156931993E+02
 0.17844745386E+02 0.16281151217E+02 0.14708860941E+02 0.13241405628E+02 0.11953148900E+02
 0.10884745617E+02 0.10052568193E+02 0.94595960306E+01 0.91044833813E+01 0.89861931450E+01
 0.91045172217E+01 0.94596242450E+01 0.10052559928E+02 0.10884710716E+02 0.11953126911E+02
 0.13241443241E+02 0.14708992260E+02 0.16281359025E+02 0.17844930107E+02 0.19156959633E+02
 0.19653452933E+02 0.18740594836E+02 0.16050311385E+02 0.11648690995E+02 0.61632631393E+01
 0.73245625545E+00 -.32830709365E+01 -.47659035559E+01 0.15843652403E+01 0.61633810132E+01
 0.11375028046E+02 0.15988211801E+02 0.19177289276E+02 0.20666364613E+02 0.20660107410E+02
 0.19658904330E+02 0.18238035942E+02 0.16732259396E+02 0.15264986964E+02 0.13919874492E+02
 0.12751157778E+02 0.11790365963E+02 0.11054899758E+02 0.10556183527E+02 0.10303708976E+02
 0.10303727401E+02 0.10556217190E+02 0.11054910077E+02 0.11790339479E+02 0.12751113320E+02
 0.13919845109E+02 0.15265010740E+02 0.16732370673E+02 0.18238234863E+02 0.19659133094E+02
 0.20660278575E+02 0.20666425067E+02 0.19177251057E+02 0.15988123758E+02 0.11374930970E+02
 0.61632951220E+01 0.15843041896E+01 -.11049191918E+01 -.11048966376E+01 0.72362903109E+01
 0.11648848975E+02 0.15988211801E+02 0.19322745076E+02 0.21194588247E+02 0.21630396816E+02
 0.21000446878E+02 0.19821440217E+02 0.18478048143E+02 0.17106603683E+02 0.15791566796E+02
 0.14592447664E+02 0.13550388623E+02 0.12695708549E+02 0.12055394225E+02 0.11656208090E+02
 0.11520224680E+02 0.11656240210E+02 0.12055425766E+02 0.12695709174E+02 0.13550354311E+02
 0.14592392568E+02 0.15791512981E+02 0.17106586335E+02 0.18478115688E+02 0.19821627182E+02
 0.21000737619E+02 0.21630713697E+02 0.21194826582E+02 0.19322841024E+02 0.15988192379E+02
 0.11648804383E+02 0.72362853354E+01 0.39197756307E+01 0.26852872064E+01 0.39197547548E+01
 0.12386283916E+02 0.16050563406E+02 0.19177289276E+02 0.21194588247E+02 0.21966248272E+02
 0.21714650771E+02 0.20856800220E+02 0.19767487016E+02 0.18589769415E+02 0.17402687858E+02
 0.16262629694E+02 0.15211592926E+02 0.14285977006E+02 0.13525483697E+02 0.12977011172E+02
 0.12687516357E+02 0.12687538202E+02 0.12977057796E+02 0.13525518165E+02 0.14285975784E+02
 0.15211552728E+02 0.16262557154E+02 0.17402601369E+02 0.18589712600E+02 0.19767525182E+02
 0.20856983600E+02 0.21714966448E+02 0.21966600336E+02 0.21194842354E+02 0.19177364208E+02
 0.16050491325E+02 0.12386170090E+02 0.90967950718E+01 0.71423741043E+01 0.71423967141E+01
 0.90968705783E+01 0.16104932427E+02 0.18740883864E+02 0.20666364613E+02 0.21630396816E+02
 0.21714650771E+02 0.21217433674E+02 0.20453840172E+02 0.19554922000E+02 0.18589769659E+02
 0.17605191506E+02 0.16635075284E+02 0.15711638954E+02 0.14878185502E+02 0.14196083015E+02
 0.13739133815E+02 0.13577112008E+02 0.13739189918E+02 0.14196153215E+02 0.14878226962E+02
 0.15711634702E+02 0.16635024389E+02 0.17605099165E+02 0.18589660705E+02 0.19554850266E+02
 0.20453868486E+02 0.21217590936E+02 0.21714902720E+02 0.21630648175E+02 0.20666500272E+02
 0.18740833610E+02 0.16104720418E+02 0.13348371776E+02 0.11244283802E+02 0.10455629990E+02
 0.11244459502E+02 0.13348633940E+02 0.18006830121E+02 0.19653631107E+02 0.20660107410E+02
 0.21000446878E+02 0.20856800220E+02 0.20453840172E+02 0.19890095622E+02 0.19220476892E+02
 0.18478049321E+02 0.17682008408E+02 0.16850351156E+02 0.16015028578E+02 0.15228613792E+02
 0.14592076436E+02 0.14230597265E+02 0.14230646632E+02 0.14592186546E+02 0.15228711153E+02
 0.16015070138E+02 0.16850337382E+02 0.17681950584E+02 0.18477957223E+02 0.19220379490E+02
 0.19890039828E+02 0.20453859404E+02 0.20856887193E+02 0.21000560254E+02 0.20660190168E+02
 0.19653624031E+02 0.18006697549E+02 0.16015106129E+02 0.14193963199E+02 0.13101333766E+02
 0.13101428303E+02 0.14194189156E+02 0.16015337303E+02 0.18228104097E+02 0.19156931993E+02
 0.19658904330E+02 0.19821440217E+02 0.19767487016E+02 0.19554922000E+02 0.19220476892E+02
 0.18781067883E+02 0.18238038014E+02 0.17588684728E+02 0.16835178742E+02 0.16002104539E+02
 0.15201742565E+02 0.14610779509E+02 0.14391850107E+02 0.14610900908E+02 0.15201894200E+02
 0.16002196879E+02 0.16835194048E+02 0.17588656956E+02 0.18237996762E+02 0.18781023107E+02
 0.19220442443E+02 0.19554913815E+02 0.19767502014E+02 0.19821452137E+02 0.19658889769E+02
 0.19156892250E+02 0.18228055603E+02 0.16956169688E+02 0.15612949011E+02 0.14579212218E+02
 0.14190099383E+02 0.14579228630E+02 0.15612979551E+02 0.16956212105E+02 0.17264449178E+02
 0.17844745386E+02 0.18238035942E+02 0.18478048143E+02 0.18589769415E+02 0.18589769659E+02
 0.18478049321E+02 0.18238038014E+02 0.17844746715E+02 0.17264448504E+02 0.16477264739E+02
 0.15576881232E+02 0.14766994131E+02 0.14283240469E+02 0.14283311903E+02 0.14767149451E+02
 0.15577003663E+02 0.16477289672E+02 0.17264404093E+02 0.17844703114E+02 0.18238038964E+02
 0.18478092486E+02 0.18589834129E+02 0.18589834518E+02 0.18478092867E+02 0.18238038534E+02
 0.17844702627E+02 0.17264404336E+02 0.16477289941E+02 0.15577003338E+02 0.14767149522E+02
 0.14283313344E+02 0.14283242555E+02 0.14766995883E+02 0.15576882947E+02 0.16477266570E+02
 0.15750482395E+02 0.16281151217E+02 0.16732259396E+02 0.17106603683E+02 0.17402687858E+02
 0.17605191506E+02 0.17682008408E+02 0.17588684728E+02 0.17264448504E+02 0.16637135615E+02