   2   2   0   0
  0.2044269E+02  0.3866883E-09  0.3866883E-09  0.3866883E-09  0.5000000E-15
  1.000000000000000E-004
  CAR 
 unknown system                          
     17.01023278     -8.14968207  301      5.93887918      1.00000000
     -8.150  0.0000E+00  0.0000E+00
     -8.066  0.0000E+00  0.0000E+00
     -7.982  0.0000E+00  0.0000E+00
     -7.898  0.0000E+00  0.0000E+00
     -7.814  0.0000E+00  0.0000E+00
     -7.730  0.0000E+00  0.0000E+00
     -7.646  0.0000E+00  0.0000E+00
     -7.563  0.0000E+00  0.0000E+00
     -7.479  0.0000E+00  0.0000E+00
     -7.395  0.0000E+00  0.0000E+00
     -7.311  0.6895E-18  0.5782E-19
     -7.227  0.7895E-16  0.6679E-17
     -7.143  0.6542E-14  0.5553E-15
     -7.059  0.3838E-12  0.3275E-13
     -6.976  0.1595E-10  0.1370E-11
     -6.892  0.4698E-09  0.4077E-10
     -6.808  0.9836E-08  0.8656E-09
     -6.724  0.1468E-06  0.1317E-07
     -6.640  0.1568E-05  0.1447E-06
     -6.556  0.1209E-04  0.1159E-05
     -6.472  0.6798E-04  0.6860E-05
     -6.388  0.2834E-03  0.3063E-04
     -6.305  0.8946E-03  0.1056E-03
     -6.221  0.2193E-02  0.2896E-03
     -6.137  0.4290E-02  0.6493E-03
     -6.053  0.6901E-02  0.1228E-02
     -5.969  0.9498E-02  0.2025E-02
     -5.885  0.1180E-01  0.3014E-02
     -5.801  0.1396E-01  0.4185E-02
     -5.718  0.1606E-01  0.5531E-02
     -5.634  0.1769E-01  0.7015E-02
     -5.550  0.1859E-01  0.8574E-02
     -5.466  0.1947E-01  0.1021E-01
     -5.382  0.2139E-01  0.1200E-01
     -5.298  0.2400E-01  0.1401E-01
     -5.214  0.2561E-01  0.1616E-01
     -5.130  0.2562E-01  0.1831E-01
     -5.047  0.2551E-01  0.2045E-01
     -4.963  0.2673E-01  0.2269E-01
     -4.879  0.2893E-01  0.2512E-01
     -4.795  0.3115E-01  0.2773E-01
     -4.711  0.3326E-01  0.3052E-01
     -4.627  0.3523E-01  0.3347E-01
     -4.543  0.3632E-01  0.3652E-01
     -4.460  0.3601E-01  0.3954E-01
     -4.376  0.3508E-01  0.4248E-01
     -4.292  0.3589E-01  0.4549E-01
     -4.208  0.4048E-01  0.4889E-01
     -4.124  0.4752E-01  0.5287E-01
     -4.040  0.5294E-01  0.5731E-01
     -3.956  0.5476E-01  0.6190E-01
     -3.872  0.5472E-01  0.6649E-01
     -3.789  0.5490E-01  0.7110E-01
     -3.705  0.5491E-01  0.7570E-01
     -3.621  0.5291E-01  0.8014E-01
     -3.537  0.4894E-01  0.8425E-01
     -3.453  0.4657E-01  0.8815E-01
     -3.369  0.4911E-01  0.9227E-01
     -3.285  0.5444E-01  0.9684E-01
     -3.202  0.5640E-01  0.1016E+00
     -3.118  0.5141E-01  0.1059E+00
     -3.034  0.4172E-01  0.1094E+00
     -2.950  0.3228E-01  0.1121E+00
     -2.866  0.2635E-01  0.1143E+00
     -2.782  0.2488E-01  0.1164E+00
     -2.698  0.2777E-01  0.1187E+00
     -2.615  0.3352E-01  0.1215E+00
     -2.531  0.3826E-01  0.1247E+00
     -2.447  0.3763E-01  0.1279E+00
     -2.363  0.3040E-01  0.1304E+00
     -2.279  0.1961E-01  0.1321E+00
     -2.195  0.9856E-02  0.1329E+00
     -2.111  0.3799E-02  0.1332E+00
     -2.027  0.1293E-02  0.1333E+00
     -1.944  0.1385E-02  0.1334E+00
     -1.860  0.4508E-02  0.1338E+00
     -1.776  0.1243E-01  0.1349E+00
     -1.692  0.2502E-01  0.1370E+00
     -1.608  0.3695E-01  0.1401E+00
     -1.524  0.4126E-01  0.1435E+00
     -1.440  0.3767E-01  0.1467E+00
     -1.357  0.3392E-01  0.1495E+00
     -1.273  0.3772E-01  0.1527E+00
     -1.189  0.4989E-01  0.1569E+00
     -1.105  0.6474E-01  0.1623E+00
     -1.021  0.7565E-01  0.1687E+00
     -0.937  0.7992E-01  0.1754E+00
     -0.853  0.7761E-01  0.1819E+00
     -0.769  0.6893E-01  0.1876E+00
     -0.686  0.5681E-01  0.1924E+00
     -0.602  0.4791E-01  0.1964E+00
     -0.518  0.4556E-01  0.2002E+00
     -0.434  0.4467E-01  0.2040E+00
     -0.350  0.3850E-01  0.2072E+00
     -0.266  0.2853E-01  0.2096E+00
     -0.182  0.2239E-01  0.2115E+00
     -0.099  0.2423E-01  0.2135E+00
     -0.015  0.3126E-01  0.2161E+00
      0.069  0.3738E-01  0.2193E+00
      0.153  0.3764E-01  0.2224E+00
      0.237  0.3144E-01  0.2251E+00
      0.321  0.2290E-01  0.2270E+00
      0.405  0.1729E-01  0.2284E+00
      0.489  0.1745E-01  0.2299E+00
      0.572  0.2230E-01  0.2318E+00
      0.656  0.2698E-01  0.2340E+00
      0.740  0.2613E-01  0.2362E+00
      0.824  0.1950E-01  0.2379E+00
      0.908  0.1229E-01  0.2389E+00
      0.992  0.9376E-02  0.2397E+00
      1.076  0.1141E-01  0.2406E+00
      1.159  0.1689E-01  0.2421E+00
      1.243  0.2554E-01  0.2442E+00
      1.327  0.3732E-01  0.2473E+00
      1.411  0.4918E-01  0.2515E+00
      1.495  0.5658E-01  0.2562E+00
      1.579  0.5924E-01  0.2612E+00
      1.663  0.6178E-01  0.2663E+00
      1.747  0.6729E-01  0.2720E+00
      1.830  0.7352E-01  0.2782E+00
      1.914  0.7677E-01  0.2846E+00
      1.998  0.7641E-01  0.2910E+00
      2.082  0.7428E-01  0.2972E+00
      2.166  0.7207E-01  0.3033E+00
      2.250  0.7034E-01  0.3092E+00
      2.334  0.6905E-01  0.3150E+00
      2.417  0.6883E-01  0.3207E+00
      2.501  0.7130E-01  0.3267E+00
      2.585  0.7837E-01  0.3333E+00
      2.669  0.8946E-01  0.3408E+00
      2.753  0.9869E-01  0.3491E+00
      2.837  0.9981E-01  0.3574E+00
      2.921  0.9512E-01  0.3654E+00
      3.005  0.9306E-01  0.3732E+00
      3.088  0.9610E-01  0.3813E+00
      3.172  0.9806E-01  0.3895E+00
      3.256  0.9438E-01  0.3974E+00
      3.340  0.8950E-01  0.4049E+00
      3.424  0.9150E-01  0.4126E+00
      3.508  0.1004E+00  0.4210E+00
      3.592  0.1059E+00  0.4299E+00
      3.675  0.9910E-01  0.4382E+00
      3.759  0.8359E-01  0.4452E+00
      3.843  0.7142E-01  0.4512E+00
      3.927  0.7118E-01  0.4572E+00
      4.011  0.8078E-01  0.4640E+00
      4.095  0.9038E-01  0.4715E+00
      4.179  0.9157E-01  0.4792E+00
      4.263  0.8356E-01  0.4862E+00
      4.346  0.7178E-01  0.4923E+00
      4.430  0.6263E-01  0.4975E+00
      4.514  0.5921E-01  0.5025E+00
      4.598  0.5890E-01  0.5074E+00
      4.682  0.5516E-01  0.5120E+00
      4.766  0.4519E-01  0.5158E+00
      4.850  0.3384E-01  0.5187E+00
      4.933  0.2766E-01  0.5210E+00
      5.017  0.2738E-01  0.5233E+00
      5.101  0.2810E-01  0.5256E+00
      5.185  0.2546E-01  0.5278E+00
      5.269  0.1995E-01  0.5294E+00
      5.353  0.1471E-01  0.5307E+00
      5.437  0.1122E-01  0.5316E+00
      5.521  0.8662E-02  0.5323E+00
      5.604  0.6053E-02  0.5329E+00
      5.688  0.3480E-02  0.5331E+00
      5.772  0.1557E-02  0.5333E+00
      5.856  0.5283E-03  0.5333E+00
      5.940  0.1565E-03  0.5333E+00
      6.024  0.1840E-03  0.5333E+00
      6.108  0.7237E-03  0.5334E+00
      6.191  0.2332E-02  0.5336E+00
      6.275  0.5489E-02  0.5341E+00
      6.359  0.9609E-02  0.5349E+00
      6.443  0.1313E-01  0.5360E+00
      6.527  0.1553E-01  0.5373E+00
      6.611  0.1854E-01  0.5388E+00
      6.695  0.2396E-01  0.5408E+00
      6.779  0.3057E-01  0.5434E+00
      6.862  0.3524E-01  0.5464E+00
      6.946  0.3756E-01  0.5495E+00
      7.030  0.4063E-01  0.5529E+00
      7.114  0.4554E-01  0.5567E+00
      7.198  0.4939E-01  0.5609E+00
      7.282  0.5075E-01  0.5651E+00
      7.366  0.5227E-01  0.5695E+00
      7.449  0.5678E-01  0.5743E+00
      7.533  0.6488E-01  0.5797E+00
      7.617  0.7668E-01  0.5862E+00
      7.701  0.9198E-01  0.5939E+00
      7.785  0.1067E+00  0.6028E+00
      7.869  0.1131E+00  0.6123E+00
      7.953  0.1077E+00  0.6213E+00
      8.037  0.9667E-01  0.6294E+00
      8.120  0.8828E-01  0.6368E+00
      8.204  0.8605E-01  0.6441E+00
      8.288  0.8692E-01  0.6514E+00
      8.372  0.8492E-01  0.6585E+00
      8.456  0.7823E-01  0.6650E+00
      8.540  0.7169E-01  0.6710E+00
      8.624  0.7134E-01  0.6770E+00
      8.707  0.8082E-01  0.6838E+00
      8.791  0.1005E+00  0.6922E+00
      8.875  0.1235E+00  0.7026E+00
      8.959  0.1375E+00  0.7141E+00
      9.043  0.1354E+00  0.7255E+00
      9.127  0.1224E+00  0.7357E+00
      9.211  0.1097E+00  0.7449E+00
      9.295  0.1047E+00  0.7537E+00
      9.378  0.1054E+00  0.7625E+00
      9.462  0.1053E+00  0.7714E+00
      9.546  0.1006E+00  0.7798E+00
      9.630  0.9329E-01  0.7876E+00
      9.714  0.8789E-01  0.7950E+00
      9.798  0.8698E-01  0.8023E+00
      9.882  0.8780E-01  0.8097E+00
      9.965  0.8618E-01  0.8169E+00
     10.049  0.8254E-01  0.8238E+00
     10.133  0.8048E-01  0.8306E+00
     10.217  0.8126E-01  0.8374E+00
     10.301  0.8363E-01  0.8444E+00
     10.385  0.8747E-01  0.8517E+00
     10.469  0.9366E-01  0.8596E+00
     10.553  0.9972E-01  0.8680E+00
     10.636  0.9944E-01  0.8763E+00
     10.720  0.8980E-01  0.8838E+00
     10.804  0.7541E-01  0.8902E+00
     10.888  0.6368E-01  0.8955E+00
     10.972  0.5775E-01  0.9003E+00
     11.056  0.5623E-01  0.9051E+00
     11.140  0.5869E-01  0.9100E+00
     11.223  0.6742E-01  0.9156E+00
     11.307  0.8178E-01  0.9225E+00
     11.391  0.9550E-01  0.9305E+00
     11.475  0.1022E+00  0.9391E+00
     11.559  0.9943E-01  0.9474E+00
     11.643  0.8778E-01  0.9548E+00
     11.727  0.7023E-01  0.9607E+00
     11.811  0.5347E-01  0.9651E+00
     11.894  0.4466E-01  0.9689E+00
     11.978  0.4522E-01  0.9727E+00
     12.062  0.4915E-01  0.9768E+00
     12.146  0.4907E-01  0.9809E+00
     12.230  0.4397E-01  0.9846E+00
     12.314  0.3987E-01  0.9879E+00
     12.398  0.4401E-01  0.9916E+00
     12.481  0.5858E-01  0.9965E+00
     12.565  0.7717E-01  0.1003E+01
     12.649  0.8757E-01  0.1010E+01
     12.733  0.8177E-01  0.1017E+01
     12.817  0.6280E-01  0.1022E+01
     12.901  0.4116E-01  0.1026E+01
     12.985  0.2686E-01  0.1028E+01
     13.069  0.2361E-01  0.1030E+01
     13.152  0.2734E-01  0.1032E+01
     13.236  0.3082E-01  0.1035E+01
     13.320  0.3084E-01  0.1038E+01
     13.404  0.2946E-01  0.1040E+01
     13.488  0.2897E-01  0.1043E+01
     13.572  0.2953E-01  0.1045E+01
     13.656  0.3124E-01  0.1048E+01
     13.739  0.3449E-01  0.1051E+01
     13.823  0.3705E-01  0.1054E+01
     13.907  0.3438E-01  0.1057E+01
     13.991  0.2515E-01  0.1059E+01
     14.075  0.1380E-01  0.1060E+01
     14.159  0.5556E-02  0.1060E+01
     14.243  0.1705E-02  0.1060E+01
     14.327  0.8022E-03  0.1060E+01
     14.410  0.1669E-02  0.1061E+01
     14.494  0.4004E-02  0.1061E+01
     14.578  0.7070E-02  0.1062E+01
     14.662  0.9137E-02  0.1062E+01
     14.746  0.9237E-02  0.1063E+01
     14.830  0.8612E-02  0.1064E+01
     14.914  0.8765E-02  0.1065E+01
     14.997  0.9032E-02  0.1065E+01
     15.081  0.7802E-02  0.1066E+01
     15.165  0.5108E-02  0.1066E+01
     15.249  0.2452E-02  0.1067E+01
     15.333  0.8537E-03  0.1067E+01
     15.417  0.2146E-03  0.1067E+01
     15.501  0.3885E-04  0.1067E+01
     15.585  0.5045E-05  0.1067E+01
     15.668  0.4690E-06  0.1067E+01
     15.752  0.3114E-07  0.1067E+01
     15.836  0.1473E-08  0.1067E+01
     15.920  0.4954E-10  0.1067E+01
     16.004  0.1183E-11  0.1067E+01
     16.088  0.2004E-13  0.1067E+01
     16.172  0.2420E-15  0.1067E+01
     16.255  0.2068E-17  0.1067E+01
     16.339  0.0000E+00  0.1067E+01
     16.423  0.0000E+00  0.1067E+01
     16.507  0.0000E+00  0.1067E+01
     16.591  0.0000E+00  0.1067E+01
     16.675  0.0000E+00  0.1067E+01
     16.759  0.0000E+00  0.1067E+01
     16.843  0.0000E+00  0.1067E+01
     16.926  0.0000E+00  0.1067E+01
     17.010  0.0000E+00  0.1067E+01
