       N       E                     dE             d eps       ncg     rms          rms(c)
DAV:   1     0.278139139649E+01    0.27814E+01   -0.26580E+03   960   0.558E+02
DAV:   2    -0.108526133783E+02   -0.13634E+02   -0.13224E+02  1488   0.700E+01
DAV:   3    -0.110150979788E+02   -0.16248E+00   -0.16248E+00  1184   0.960E+00
DAV:   4    -0.110158171301E+02   -0.71915E-03   -0.71915E-03  1568   0.707E-01
DAV:   5    -0.110158175941E+02   -0.46401E-06   -0.46477E-06  1248   0.144E-02    0.296E+00
DAV:   6    -0.109000102620E+02    0.11581E+00   -0.75513E-02  1168   0.143E+00    0.176E+00
DAV:   7    -0.108463800988E+02    0.53630E-01   -0.14170E-01  1200   0.209E+00    0.149E-01
DAV:   8    -0.108477041420E+02   -0.13240E-02   -0.40325E-03  1136   0.471E-01    0.251E-02
DAV:   9    -0.108478013505E+02   -0.97209E-04   -0.99416E-05   792   0.813E-02
   1 F= -.10847801E+02 E0= -.10847785E+02  d E =-.108478E+02
