 vasp.5.4.4.18Apr17-6-g9f103f2a35 (build Dec 09 2018 21:25:21) complex          
  
 executed on IFC18.0.1.163_CrayMP date 2019.04.01  15:59:46
 running on    8 total cores
 distrk:  each k-point on    8 cores,    1 groups
 distr:  one band on NCORES_PER_BAND=   1 cores,    8 groups


--------------------------------------------------------------------------------------------------------


 INCAR:
 POTCAR:   PAW_PBE Si 05Jan2001                   

 ----------------------------------------------------------------------------- 
|                                                                             |
|           W    W    AA    RRRRR   N    N  II  N    N   GGGG   !!!           |
|           W    W   A  A   R    R  NN   N  II  NN   N  G    G  !!!           |
|           W    W  A    A  R    R  N N  N  II  N N  N  G       !!!           |
|           W WW W  AAAAAA  RRRRR   N  N N  II  N  N N  G  GGG   !            |
|           WW  WW  A    A  R   R   N   NN  II  N   NN  G    G                |
|           W    W  A    A  R    R  N    N  II  N    N   GGGG   !!!           |
|                                                                             |
|      For optimal performance we recommend to set                            |
|        NCORE= 4 - approx SQRT( number of cores)                             |
|      NCORE specifies how many cores store one orbital (NPAR=cpu/NCORE).     |
|      This setting can  greatly improve the performance of VASP for DFT.     |
|      The default,   NCORE=1            might be grossly inefficient         |
|      on modern multi-core architectures or massively parallel machines.     |
|      Do your own testing !!!!                                               |
|      Unfortunately you need to use the default for GW and RPA calculations. |
|      (for HF NCORE is supported but not extensively tested yet)             |
|                                                                             |
 ----------------------------------------------------------------------------- 

 POTCAR:   PAW_PBE Si 05Jan2001                   
   VRHFIN =Si: s2p2                                                             
   LEXCH  = PE                                                                  
   EATOM  =   103.0669 eV,    7.5752 Ry                                         
                                                                                
   TITEL  = PAW_PBE Si 05Jan2001                                                
   LULTRA =        F    use ultrasoft PP ?                                      
   IUNSCR =        1    unscreen: 0-lin 1-nonlin 2-no                           
   RPACOR =    1.500    partial core radius                                     
   POMASS =   28.085; ZVAL   =    4.000    mass and valenz                      
   RCORE  =    1.900    outmost cutoff radius                                   
   RWIGS  =    2.480; RWIGS  =    1.312    wigner-seitz radius (au A)           
   ENMAX  =  245.345; ENMIN  =  184.009 eV                                      
   ICORE  =        2    local potential                                         
   LCOR   =        T    correct aug charges                                     
   LPAW   =        T    paw PP                                                  
   EAUG   =  322.069                                                            
   DEXC   =    -.007                                                            
   RMAX   =    2.944    core radius for proj-oper                               
   RAUG   =    1.300    factor for augmentation sphere                          
   RDEP   =    1.993    radius for radial grids                                 
   QCUT   =   -4.246; QGAM   =    8.493    optimization parameters              
                                                                                
   Description                                                                  
     l     E      TYP  RCUT    TYP  RCUT                                        
     0   .000     23  1.900                                                     
     0   .000     23  1.900                                                     
     1   .000     23  1.900                                                     
     1   .000     23  1.900                                                     
     2   .000      7  1.900                                                     
  local pseudopotential read in
  partial core-charges read in
  atomic valenz-charges read in
  non local Contribution for L=           0  read in
    real space projection operators read in
  non local Contribution for L=           0  read in
    real space projection operators read in
  non local Contribution for L=           1  read in
    real space projection operators read in
  non local Contribution for L=           1  read in
    real space projection operators read in
    PAW grid and wavefunctions read in
 
   number of l-projection  operators is LMAX  =           4
   number of lm-projection operators is LMMAX =           8
 
 PAW_PBE Si 05Jan2001                   :
 energy of atom  1       EATOM= -103.0669
 kinetic energy error for atom=    0.0013 (will be added to EATOM!!)
 
 
 POSCAR: Si2                                     
  positions in direct lattice
  No initial velocities read in
 exchange correlation table for  LEXCH =        8
   RHO(1)=    0.500       N(1)  =     2000
   RHO(2)=  100.500       N(2)  =     4000
 


--------------------------------------------------------------------------------------------------------


 ion  position               nearest neighbor table
   1  0.000  0.000  0.000-   2 2.37   2 2.37   2 2.37   2 2.37
   2  0.250  0.250  0.250-   1 2.37   1 2.37   1 2.37   1 2.37
 
  LATTYP: Found a face centered cubic cell.
 ALAT       =     5.4685980000
  
  Lattice vectors:
  
 A1 = (   0.0000000000,   2.7342990000,   2.7342990000)
 A2 = (   2.7342990000,   0.0000000000,   2.7342990000)
 A3 = (   2.7342990000,   2.7342990000,   0.0000000000)


Analysis of symmetry for initial positions (statically):
=====================================================================
 Subroutine PRICEL returns:
 Original cell was already a primitive cell.
 

 Routine SETGRP: Setting up the symmetry group for a 
 face centered cubic supercell.


 Subroutine GETGRP returns: Found 48 space group operations
 (whereof 24 operations were pure point group operations)
 out of a pool of 48 trial point group operations.


The static configuration has the point symmetry T_d .
 The point group associated with its full space group is O_h .


Analysis of symmetry for dynamics (positions and initial velocities):
=====================================================================
 Subroutine PRICEL returns:
 Original cell was already a primitive cell.
 

 Routine SETGRP: Setting up the symmetry group for a 
 face centered cubic supercell.


 Subroutine GETGRP returns: Found 48 space group operations
 (whereof 24 operations were pure point group operations)
 out of a pool of 48 trial point group operations.


The dynamic configuration has the point symmetry T_d .
 The point group associated with its full space group is O_h .


 Subroutine INISYM returns: Found 48 space group operations
 (whereof 24 operations are pure point group operations),
 and found     1 'primitive' translations

 
 
 KPOINTS: Automatic kpoint scheme                 

Automatic generation of k-mesh.
Space group operators:
 irot       det(A)        alpha          n_x          n_y          n_z        tau_x        tau_y        tau_z
    1     1.000000     0.000000     1.000000     0.000000     0.000000     0.000000     0.000000     0.000000
    2     1.000000   120.000000    -0.577350    -0.577350    -0.577350     0.000000     0.000000     0.000000
    3     1.000000   120.000000     0.577350     0.577350     0.577350     0.000000     0.000000     0.000000
    4    -1.000000    90.000000     0.000000     0.000000    -1.000000     0.000000     0.000000     0.000000
    5    -1.000000   180.000000    -0.000000     0.707107     0.707107     0.000000     0.000000     0.000000
    6    -1.000000    90.000000     0.000000     1.000000     0.000000     0.000000     0.000000     0.000000
    7     1.000000   180.000000    -0.000000     0.000000    -1.000000     0.000000     0.000000     0.000000
    8     1.000000   120.000000    -0.577350     0.577350     0.577350     0.000000     0.000000     0.000000
    9     1.000000   120.000000    -0.577350     0.577350    -0.577350     0.000000     0.000000     0.000000
   10    -1.000000    90.000000     0.000000     0.000000     1.000000     0.000000     0.000000     0.000000
   11    -1.000000    90.000000    -1.000000    -0.000000     0.000000     0.000000     0.000000     0.000000
   12    -1.000000   180.000000     0.707107     0.000000     0.707107     0.000000     0.000000     0.000000
   13     1.000000   120.000000     0.577350    -0.577350     0.577350     0.000000     0.000000     0.000000
   14     1.000000   120.000000    -0.577350    -0.577350     0.577350     0.000000     0.000000     0.000000
   15     1.000000   180.000000     1.000000     0.000000     0.000000     0.000000     0.000000     0.000000
   16    -1.000000    90.000000     0.000000    -1.000000     0.000000     0.000000     0.000000     0.000000
   17    -1.000000   180.000000     0.707107     0.707107     0.000000     0.000000     0.000000     0.000000
   18    -1.000000    90.000000     1.000000    -0.000000    -0.000000     0.000000     0.000000     0.000000
   19     1.000000   120.000000     0.577350    -0.577350    -0.577350     0.000000     0.000000     0.000000
   20     1.000000   180.000000    -0.000000    -1.000000     0.000000     0.000000     0.000000     0.000000
   21     1.000000   120.000000     0.577350     0.577350    -0.577350     0.000000     0.000000     0.000000
   22    -1.000000   180.000000     0.000000    -0.707107     0.707107     0.000000     0.000000     0.000000
   23    -1.000000   180.000000     0.707107    -0.707107     0.000000     0.000000     0.000000     0.000000
   24    -1.000000   180.000000     0.707107     0.000000    -0.707107     0.000000     0.000000     0.000000
   25    -1.000000     0.000000     1.000000     0.000000     0.000000     0.250000     0.250000     0.250000
   26    -1.000000   120.000000    -0.577350    -0.577350    -0.577350     0.250000     0.250000     0.250000
   27    -1.000000   120.000000     0.577350     0.577350     0.577350     0.250000     0.250000     0.250000
   28     1.000000    90.000000     0.000000     0.000000    -1.000000     0.250000     0.250000     0.250000
   29     1.000000   180.000000    -0.000000     0.707107     0.707107     0.250000     0.250000     0.250000
   30     1.000000    90.000000     0.000000     1.000000     0.000000     0.250000     0.250000     0.250000
   31    -1.000000   180.000000    -0.000000     0.000000    -1.000000     0.250000     0.250000     0.250000
   32    -1.000000   120.000000    -0.577350     0.577350     0.577350     0.250000     0.250000     0.250000
   33    -1.000000   120.000000    -0.577350     0.577350    -0.577350     0.250000     0.250000     0.250000
   34     1.000000    90.000000     0.000000     0.000000     1.000000     0.250000     0.250000     0.250000
   35     1.000000    90.000000    -1.000000    -0.000000     0.000000     0.250000     0.250000     0.250000
   36     1.000000   180.000000     0.707107     0.000000     0.707107     0.250000     0.250000     0.250000
   37    -1.000000   120.000000     0.577350    -0.577350     0.577350     0.250000     0.250000     0.250000
   38    -1.000000   120.000000    -0.577350    -0.577350     0.577350     0.250000     0.250000     0.250000
   39    -1.000000   180.000000     1.000000     0.000000     0.000000     0.250000     0.250000     0.250000
   40     1.000000    90.000000     0.000000    -1.000000     0.000000     0.250000     0.250000     0.250000
   41     1.000000   180.000000     0.707107     0.707107     0.000000     0.250000     0.250000     0.250000
   42     1.000000    90.000000     1.000000    -0.000000    -0.000000     0.250000     0.250000     0.250000
   43    -1.000000   120.000000     0.577350    -0.577350    -0.577350     0.250000     0.250000     0.250000
   44    -1.000000   180.000000    -0.000000    -1.000000     0.000000     0.250000     0.250000     0.250000
   45    -1.000000   120.000000     0.577350     0.577350    -0.577350     0.250000     0.250000     0.250000
   46     1.000000   180.000000     0.000000    -0.707107     0.707107     0.250000     0.250000     0.250000
   47     1.000000   180.000000     0.707107    -0.707107     0.000000     0.250000     0.250000     0.250000
   48     1.000000   180.000000     0.707107     0.000000    -0.707107     0.250000     0.250000     0.250000
 
 Subroutine IBZKPT returns following result:
 ===========================================
 
 Found     60 irreducible k-points:
 
 Following reciprocal coordinates:
            Coordinates               Weight
  0.062500  0.062500  0.062500     96.000000
  0.187500  0.062500  0.062500    288.000000
  0.312500  0.062500  0.062500    288.000000
  0.437500  0.062500  0.062500    288.000000
 -0.437500  0.062500  0.062500    288.000000
 -0.312500  0.062500  0.062500    288.000000
 -0.187500  0.062500  0.062500    288.000000
 -0.062500  0.062500  0.062500    288.000000
  0.187500  0.187500  0.062500    288.000000
  0.312500  0.187500  0.062500    576.000000
  0.437500  0.187500  0.062500    576.000000
 -0.437500  0.187500  0.062500    576.000000
 -0.312500  0.187500  0.062500    576.000000
 -0.187500  0.187500  0.062500    576.000000
 -0.062500  0.187500  0.062500    576.000000
  0.312500  0.312500  0.062500    288.000000
  0.437500  0.312500  0.062500    576.000000
 -0.437500  0.312500  0.062500    576.000000
 -0.312500  0.312500  0.062500    576.000000
 -0.187500  0.312500  0.062500    576.000000
 -0.062500  0.312500  0.062500    576.000000
  0.437500  0.437500  0.062500    288.000000
 -0.437500  0.437500  0.062500    576.000000
 -0.312500  0.437500  0.062500    576.000000
 -0.187500  0.437500  0.062500    576.000000
 -0.062500  0.437500  0.062500    576.000000
 -0.437500 -0.437500  0.062500    288.000000
 -0.312500 -0.437500  0.062500    576.000000
 -0.187500 -0.437500  0.062500    576.000000
 -0.312500 -0.312500  0.062500    288.000000
 -0.187500 -0.312500  0.062500    576.000000
 -0.187500 -0.187500  0.062500    288.000000
  0.187500  0.187500  0.187500     96.000000
  0.312500  0.187500  0.187500    288.000000
  0.437500  0.187500  0.187500    288.000000
 -0.437500  0.187500  0.187500    288.000000
 -0.312500  0.187500  0.187500    288.000000
 -0.187500  0.187500  0.187500    288.000000
  0.312500  0.312500  0.187500    288.000000
  0.437500  0.312500  0.187500    576.000000
 -0.437500  0.312500  0.187500    576.000000
 -0.312500  0.312500  0.187500    576.000000
 -0.187500  0.312500  0.187500    576.000000
  0.437500  0.437500  0.187500    288.000000
 -0.437500  0.437500  0.187500    576.000000
 -0.312500  0.437500  0.187500    576.000000
 -0.187500  0.437500  0.187500    576.000000
 -0.437500 -0.437500  0.187500    288.000000
 -0.312500 -0.437500  0.187500    576.000000
 -0.312500 -0.312500  0.187500    288.000000
  0.312500  0.312500  0.312500     96.000000
  0.437500  0.312500  0.312500    288.000000
 -0.437500  0.312500  0.312500    288.000000
 -0.312500  0.312500  0.312500    288.000000
  0.437500  0.437500  0.312500    288.000000
 -0.437500  0.437500  0.312500    576.000000
 -0.312500  0.437500  0.312500    576.000000
 -0.437500 -0.437500  0.312500    288.000000
  0.437500  0.437500  0.437500     96.000000
 -0.437500  0.437500  0.437500    288.000000
 
 Following cartesian coordinates:
            Coordinates               Weight
  0.011429  0.011429  0.011429     96.000000
 -0.011429  0.034287  0.034287    288.000000
 -0.034287  0.057144  0.057144    288.000000
 -0.057144  0.080002  0.080002    288.000000
  0.102860 -0.080002 -0.080002    288.000000
  0.080002 -0.057144 -0.057144    288.000000
  0.057144 -0.034287 -0.034287    288.000000
  0.034287 -0.011429 -0.011429    288.000000
  0.011429  0.011429  0.057144    288.000000
 -0.011429  0.034287  0.080002    576.000000
 -0.034287  0.057144  0.102860    576.000000
  0.125718 -0.102860 -0.057144    576.000000
  0.102860 -0.080002 -0.034287    576.000000
  0.080002 -0.057144 -0.011429    576.000000
  0.057144 -0.034287  0.011429    576.000000
  0.011429  0.011429  0.102860    288.000000
 -0.011429  0.034287  0.125718    576.000000
  0.148576 -0.125718 -0.034287    576.000000
  0.125718 -0.102860 -0.011429    576.000000
  0.102860 -0.080002  0.011429    576.000000
  0.080002 -0.057144  0.034287    576.000000
  0.011429  0.011429  0.148576    288.000000
  0.171433 -0.148576 -0.011429    576.000000
  0.148576 -0.125718  0.011429    576.000000
  0.125718 -0.102860  0.034287    576.000000
  0.102860 -0.080002  0.057144    576.000000
  0.011429  0.011429 -0.171433    288.000000
 -0.011429  0.034287 -0.148576    576.000000
 -0.034287  0.057144 -0.125718    576.000000
  0.011429  0.011429 -0.125718    288.000000
 -0.011429  0.034287 -0.102860    576.000000
  0.011429  0.011429 -0.080002    288.000000
  0.034287  0.034287  0.034287     96.000000
  0.011429  0.057144  0.057144    288.000000
 -0.011429  0.080002  0.080002    288.000000
  0.148576 -0.080002 -0.080002    288.000000
  0.125718 -0.057144 -0.057144    288.000000
  0.102860 -0.034287 -0.034287    288.000000
  0.034287  0.034287  0.080002    288.000000
  0.011429  0.057144  0.102860    576.000000
  0.171433 -0.102860 -0.057144    576.000000
  0.148576 -0.080002 -0.034287    576.000000
  0.125718 -0.057144 -0.011429    576.000000
  0.034287  0.034287  0.125718    288.000000
  0.194291 -0.125718 -0.034287    576.000000
  0.171433 -0.102860 -0.011429    576.000000
  0.148576 -0.080002  0.011429    576.000000
  0.034287  0.034287 -0.194291    288.000000
  0.011429  0.057144 -0.171433    576.000000
  0.034287  0.034287 -0.148576    288.000000
  0.057144  0.057144  0.057144     96.000000
  0.034287  0.080002  0.080002    288.000000
  0.194291 -0.080002 -0.080002    288.000000
  0.171433 -0.057144 -0.057144    288.000000
  0.057144  0.057144  0.102860    288.000000
  0.217149 -0.102860 -0.057144    576.000000
  0.194291 -0.080002 -0.034287    576.000000
  0.057144  0.057144 -0.217149    288.000000
  0.080002  0.080002  0.080002     96.000000
  0.240007 -0.080002 -0.080002    288.000000
 


--------------------------------------------------------------------------------------------------------




 Dimension of arrays:
   k-points           NKPTS =     60   k-points in BZ     NKDIM =     60   number of bands    NBANDS=      8
   number of dos      NEDOS =    301   number of ions     NIONS =      2
   non local maximal  LDIM  =      4   non local SUM 2l+1 LMDIM =      8
   total plane-waves  NPLWV =   5832
   max r-space proj   IRMAX =      1   max aug-charges    IRDMAX=   4968
   dimension x,y,z NGX =    18 NGY =   18 NGZ =   18
   dimension x,y,z NGXF=    36 NGYF=   36 NGZF=   36
   support grid    NGXF=    36 NGYF=   36 NGZF=   36
   ions per type =               2
   NGX,Y,Z   is equivalent  to a cutoff of   7.74,  7.74,  7.74 a.u.
   NGXF,Y,Z  is equivalent  to a cutoff of  15.48, 15.48, 15.48 a.u.

 SYSTEM =  unknown system                          
 POSCAR =  Si2                                     

 Startparameter for this run:
   NWRITE =      2    write-flag & timer
   PREC   = normal    normal or accurate (medium, high low for compatibility)
   ISTART =      0    job   : 0-new  1-cont  2-samecut
   ICHARG =      2    charge: 1-file 2-atom 10-const
   ISPIN  =      1    spin polarized calculation?
   LNONCOLLINEAR =      F non collinear calculations
   LSORBIT =      F    spin-orbit coupling
   INIWAV =      1    electr: 0-lowe 1-rand  2-diag
   LASPH  =      F    aspherical Exc in radial PAW
   METAGGA=      F    non-selfconsistent MetaGGA calc.

 Electronic Relaxation 1
   ENCUT  =  350.0 eV  25.72 Ry    5.07 a.u.   5.90  5.90  5.90*2*pi/ulx,y,z
   ENINI  =  350.0     initial cutoff
   ENAUG  =  322.1 eV  augmentation charge cutoff
   NELM   =     60;   NELMIN=  2; NELMDL= -5     # of ELM steps 
   EDIFF  = 0.4E-03   stopping-criterion for ELM
   LREAL  =      F    real-space projection
   NLSPLINE    = F    spline interpolate recip. space projectors
   LCOMPAT=      F    compatible to vasp.4.4
   GGA_COMPAT  = T    GGA compatible to vasp.4.4-vasp.4.6
   LMAXPAW     = -100 max onsite density
   LMAXMIX     =    2 max onsite mixed and CHGCAR
   VOSKOWN=      0    Vosko Wilk Nusair interpolation
   ROPT   =    0.00000
 Ionic relaxation
   EDIFFG = -.1E-01   stopping-criterion for IOM
   NSW    =     15    number of steps for IOM
   NBLOCK =      1;   KBLOCK =     15    inner block; outer block 
   IBRION =      2    ionic relax: 0-MD 1-quasi-New 2-CG
   NFREE  =      1    steps in history (QN), initial steepest desc. (CG)
   ISIF   =      2    stress and relaxation
   IWAVPR =     11    prediction:  0-non 1-charg 2-wave 3-comb
   ISYM   =      2    0-nonsym 1-usesym 2-fastsym
   LCORR  =      T    Harris-Foulkes like correction to forces

   POTIM  = 0.5000    time-step for ionic-motion
   TEIN   =    0.0    initial temperature
   TEBEG  =    0.0;   TEEND  =   0.0 temperature during run
   SMASS  =  -3.00    Nose mass-parameter (am)
   estimated Nose-frequenzy (Omega)   =  0.10E-29 period in steps =****** mass=  -0.342E-27a.u.
   SCALEE = 1.0000    scale energy and forces
   NPACO  =    256;   APACO  = 16.0  distance and # of slots for P.C.
   PSTRESS=    0.0 pullay stress

  Mass of Ions in am
   POMASS =  28.09
  Ionic Valenz
   ZVAL   =   4.00
  Atomic Wigner-Seitz radii
   RWIGS  =  -1.00
  virtual crystal weights 
   VCA    =   1.00
   NELECT =       8.0000    total number of electrons
   NUPDOWN=      -1.0000    fix difference up-down

 DOS related values:
   EMIN   =  10.00;   EMAX   =-10.00  energy-range for DOS
   EFERMI =   0.00
   ISMEAR =     0;   SIGMA  =   0.20  broadening in eV -4-tet -1-fermi 0-gaus

 Electronic relaxation 2 (details)
   IALGO  =     38    algorithm
   LDIAG  =      T    sub-space diagonalisation (order eigenvalues)
   LSUBROT=      F    optimize rotation matrix (better conditioning)
   TURBO    =      0    0=normal 1=particle mesh
   IRESTART =      0    0=no restart 2=restart with 2 vectors
   NREBOOT  =      0    no. of reboots
   NMIN     =      0    reboot dimension
   EREF     =   0.00    reference energy to select bands
   IMIX   =      4    mixing-type and parameters
     AMIX     =   0.40;   BMIX     =  1.00
     AMIX_MAG =   1.60;   BMIX_MAG =  1.00
     AMIN     =   0.10
     WC   =   100.;   INIMIX=   1;  MIXPRE=   1;  MAXMIX= -45

 Intra band minimization:
   WEIMIN = 0.0010     energy-eigenvalue tresh-hold
   EBREAK =  0.13E-04  absolut break condition
   DEPER  =   0.30     relativ break condition  

   TIME   =   0.40     timestep for ELM

  volume/ion in A,a.u.               =      20.44       137.95
  Fermi-wavevector in a.u.,A,eV,Ry     =   0.950420  1.796033 12.290114  0.903298
  Thomas-Fermi vector in A             =   2.078795
 
 Write flags
   LWAVE        =      T    write WAVECAR
   LDOWNSAMPLE  =      F    k-point downsampling of WAVECAR
   LCHARG       =      T    write CHGCAR
   LVTOT        =      F    write LOCPOT, total local potential
   LVHAR        =      F    write LOCPOT, Hartree potential only
   LELF         =      F    write electronic localiz. function (ELF)
   LORBIT       =      0    0 simple, 1 ext, 2 COOP (PROOUT), +10 PAW based schemes


 Dipole corrections
   LMONO  =      F    monopole corrections only (constant potential shift)
   LDIPOL =      F    correct potential (dipole corrections)
   IDIPOL =      0    1-x, 2-y, 3-z, 4-all directions 
   EPSILON=  1.0000000 bulk dielectric constant

 Exchange correlation treatment:
   GGA     =    --    GGA type
   LEXCH   =     8    internal setting for exchange type
   VOSKOWN=      0    Vosko Wilk Nusair interpolation
   LHFCALC =     F    Hartree Fock is set to
   LHFONE  =     F    Hartree Fock one center treatment
   AEXX    =    0.0000 exact exchange contribution

 Linear response parameters
   LEPSILON=     F    determine dielectric tensor
   LRPA    =     F    only Hartree local field effects (RPA)
   LNABLA  =     F    use nabla operator in PAW spheres
   LVEL    =     F    velocity operator in full k-point grid
   LINTERFAST=   F  fast interpolation
   KINTER  =     0    interpolate to denser k-point grid
   CSHIFT  =0.1000    complex shift for real part using Kramers Kronig
   OMEGAMAX=  -1.0    maximum frequency
   DEG_THRESHOLD= 0.2000000E-02 threshold for treating states as degnerate
   RTIME   =   -0.100 relaxation time in fs
  (WPLASMAI=    0.000 imaginary part of plasma frequency in eV, 0.658/RTIME)
   DFIELD  = 0.0000000 0.0000000 0.0000000 field for delta impulse in time
 
 Orbital magnetization related:
   ORBITALMAG=     F  switch on orbital magnetization
   LCHIMAG   =     F  perturbation theory with respect to B field
   DQ        =  0.001000  dq finite difference perturbation B field
   LLRAUG    =     F  two centre corrections for induced B field



--------------------------------------------------------------------------------------------------------


 conjugate gradient relaxation of ions
 charge density and potential will be updated during run
 non-spin polarized calculation
 Variant of blocked Davidson
 Davidson routine will perform the subspace rotation
 perform sub-space diagonalisation
    after iterative eigenvector-optimisation
 modified Broyden-mixing scheme, WC =      100.0
 initial mixing is a Kerker type mixing with AMIX =  0.4000 and BMIX =      1.0000
 Hartree-type preconditioning will be used
 using additional bands            4
 reciprocal scheme for non local part
 use partial core corrections
 calculate Harris-corrections to forces 
   (improved forces if not selfconsistent)
 use gradient corrections 
 use of overlap-Matrix (Vanderbilt PP)
 Gauss-broadening in eV      SIGMA  =   0.20


--------------------------------------------------------------------------------------------------------


  energy-cutoff  :      350.00
  volume of cell :       40.89
      direct lattice vectors                 reciprocal lattice vectors
     0.000000000  2.734299000  2.734299000    -0.182862225  0.182862225  0.182862225
     2.734299000  0.000000000  2.734299000     0.182862225 -0.182862225  0.182862225
     2.734299000  2.734299000  0.000000000     0.182862225  0.182862225 -0.182862225

  length of vectors
     3.866882729  3.866882729  3.866882729     0.316726665  0.316726665  0.316726665


 
 k-points in units of 2pi/SCALE and weight: Automatic kpoint scheme                 
   0.01142889  0.01142889  0.01142889       0.004
  -0.01142889  0.03428667  0.03428667       0.012
  -0.03428667  0.05714445  0.05714445       0.012
  -0.05714445  0.08000222  0.08000222       0.012
   0.10286000 -0.08000222 -0.08000222       0.012
   0.08000222 -0.05714445 -0.05714445       0.012
   0.05714445 -0.03428667 -0.03428667       0.012
   0.03428667 -0.01142889 -0.01142889       0.012
   0.01142889  0.01142889  0.05714445       0.012
  -0.01142889  0.03428667  0.08000222       0.023
  -0.03428667  0.05714445  0.10286000       0.023
   0.12571778 -0.10286000 -0.05714445       0.023
   0.10286000 -0.08000222 -0.03428667       0.023
   0.08000222 -0.05714445 -0.01142889       0.023
   0.05714445 -0.03428667  0.01142889       0.023
   0.01142889  0.01142889  0.10286000       0.012
  -0.01142889  0.03428667  0.12571778       0.023
   0.14857556 -0.12571778 -0.03428667       0.023
   0.12571778 -0.10286000 -0.01142889       0.023
   0.10286000 -0.08000222  0.01142889       0.023
   0.08000222 -0.05714445  0.03428667       0.023
   0.01142889  0.01142889  0.14857556       0.012
   0.17143334 -0.14857556 -0.01142889       0.023
   0.14857556 -0.12571778  0.01142889       0.023
   0.12571778 -0.10286000  0.03428667       0.023
   0.10286000 -0.08000222  0.05714445       0.023
   0.01142889  0.01142889 -0.17143334       0.012
  -0.01142889  0.03428667 -0.14857556       0.023
  -0.03428667  0.05714445 -0.12571778       0.023
   0.01142889  0.01142889 -0.12571778       0.012
  -0.01142889  0.03428667 -0.10286000       0.023
   0.01142889  0.01142889 -0.08000222       0.012
   0.03428667  0.03428667  0.03428667       0.004
   0.01142889  0.05714445  0.05714445       0.012
  -0.01142889  0.08000222  0.08000222       0.012
   0.14857556 -0.08000222 -0.08000222       0.012
   0.12571778 -0.05714445 -0.05714445       0.012
   0.10286000 -0.03428667 -0.03428667       0.012
   0.03428667  0.03428667  0.08000222       0.012
   0.01142889  0.05714445  0.10286000       0.023
   0.17143334 -0.10286000 -0.05714445       0.023
   0.14857556 -0.08000222 -0.03428667       0.023
   0.12571778 -0.05714445 -0.01142889       0.023
   0.03428667  0.03428667  0.12571778       0.012
   0.19429111 -0.12571778 -0.03428667       0.023
   0.17143334 -0.10286000 -0.01142889       0.023
   0.14857556 -0.08000222  0.01142889       0.023
   0.03428667  0.03428667 -0.19429111       0.012
   0.01142889  0.05714445 -0.17143334       0.023
   0.03428667  0.03428667 -0.14857556       0.012
   0.05714445  0.05714445  0.05714445       0.004
   0.03428667  0.08000222  0.08000222       0.012
   0.19429111 -0.08000222 -0.08000222       0.012
   0.17143334 -0.05714445 -0.05714445       0.012
   0.05714445  0.05714445  0.10286000       0.012
   0.21714889 -0.10286000 -0.05714445       0.023
   0.19429111 -0.08000222 -0.03428667       0.023
   0.05714445  0.05714445 -0.21714889       0.012
   0.08000222  0.08000222  0.08000222       0.004
   0.24000667 -0.08000222 -0.08000222       0.012
 
 k-points in reciprocal lattice and weights: Automatic kpoint scheme                 
   0.06250000  0.06250000  0.06250000       0.004
   0.18750000  0.06250000  0.06250000       0.012
   0.31250000  0.06250000  0.06250000       0.012
   0.43750000  0.06250000  0.06250000       0.012
  -0.43750000  0.06250000  0.06250000       0.012
  -0.31250000  0.06250000  0.06250000       0.012
  -0.18750000  0.06250000  0.06250000       0.012
  -0.06250000  0.06250000  0.06250000       0.012
   0.18750000  0.18750000  0.06250000       0.012
   0.31250000  0.18750000  0.06250000       0.023
   0.43750000  0.18750000  0.06250000       0.023
  -0.43750000  0.18750000  0.06250000       0.023
  -0.31250000  0.18750000  0.06250000       0.023
  -0.18750000  0.18750000  0.06250000       0.023
  -0.06250000  0.18750000  0.06250000       0.023
   0.31250000  0.31250000  0.06250000       0.012
   0.43750000  0.31250000  0.06250000       0.023
  -0.43750000  0.31250000  0.06250000       0.023
  -0.31250000  0.31250000  0.06250000       0.023
  -0.18750000  0.31250000  0.06250000       0.023
  -0.06250000  0.31250000  0.06250000       0.023
   0.43750000  0.43750000  0.06250000       0.012
  -0.43750000  0.43750000  0.06250000       0.023
  -0.31250000  0.43750000  0.06250000       0.023
  -0.18750000  0.43750000  0.06250000       0.023
  -0.06250000  0.43750000  0.06250000       0.023
  -0.43750000 -0.43750000  0.06250000       0.012
  -0.31250000 -0.43750000  0.06250000       0.023
  -0.18750000 -0.43750000  0.06250000       0.023
  -0.31250000 -0.31250000  0.06250000       0.012
  -0.18750000 -0.31250000  0.06250000       0.023
  -0.18750000 -0.18750000  0.06250000       0.012
   0.18750000  0.18750000  0.18750000       0.004
   0.31250000  0.18750000  0.18750000       0.012
   0.43750000  0.18750000  0.18750000       0.012
  -0.43750000  0.18750000  0.18750000       0.012
  -0.31250000  0.18750000  0.18750000       0.012
  -0.18750000  0.18750000  0.18750000       0.012
   0.31250000  0.31250000  0.18750000       0.012
   0.43750000  0.31250000  0.18750000       0.023
  -0.43750000  0.31250000  0.18750000       0.023
  -0.31250000  0.31250000  0.18750000       0.023
  -0.18750000  0.31250000  0.18750000       0.023
   0.43750000  0.43750000  0.18750000       0.012
  -0.43750000  0.43750000  0.18750000       0.023
  -0.31250000  0.43750000  0.18750000       0.023
  -0.18750000  0.43750000  0.18750000       0.023
  -0.43750000 -0.43750000  0.18750000       0.012
  -0.31250000 -0.43750000  0.18750000       0.023
  -0.31250000 -0.31250000  0.18750000       0.012
   0.31250000  0.31250000  0.31250000       0.004
   0.43750000  0.31250000  0.31250000       0.012
  -0.43750000  0.31250000  0.31250000       0.012
  -0.31250000  0.31250000  0.31250000       0.012
   0.43750000  0.43750000  0.31250000       0.012
  -0.43750000  0.43750000  0.31250000       0.023
  -0.31250000  0.43750000  0.31250000       0.023
  -0.43750000 -0.43750000  0.31250000       0.012
   0.43750000  0.43750000  0.43750000       0.004
  -0.43750000  0.43750000  0.43750000       0.012
 
 position of ions in fractional coordinates (direct lattice) 
   0.00000000  0.00000000  0.00000000
   0.25000000  0.25000000  0.25000000
 
 position of ions in cartesian coordinates  (Angst):
   0.00000000  0.00000000  0.00000000
   1.36714950  1.36714950  1.36714950
 


--------------------------------------------------------------------------------------------------------


 k-point  1 :   0.0625 0.0625 0.0625  plane waves:     606
 k-point  2 :   0.1875 0.0625 0.0625  plane waves:     598
 k-point  3 :   0.3125 0.0625 0.0625  plane waves:     605
 k-point  4 :   0.4375 0.0625 0.0625  plane waves:     606
 k-point  5 :  -0.4375 0.0625 0.0625  plane waves:     606
 k-point  6 :  -0.3125 0.0625 0.0625  plane waves:     606
 k-point  7 :  -0.1875 0.0625 0.0625  plane waves:     601
 k-point  8 :  -0.0625 0.0625 0.0625  plane waves:     599
 k-point  9 :   0.1875 0.1875 0.0625  plane waves:     595
 k-point 10 :   0.3125 0.1875 0.0625  plane waves:     603
 k-point 11 :   0.4375 0.1875 0.0625  plane waves:     611
 k-point 12 :  -0.4375 0.1875 0.0625  plane waves:     604
 k-point 13 :  -0.3125 0.1875 0.0625  plane waves:     607
 k-point 14 :  -0.1875 0.1875 0.0625  plane waves:     609
 k-point 15 :  -0.0625 0.1875 0.0625  plane waves:     599
 k-point 16 :   0.3125 0.3125 0.0625  plane waves:     609
 k-point 17 :   0.4375 0.3125 0.0625  plane waves:     608
 k-point 18 :  -0.4375 0.3125 0.0625  plane waves:     611
 k-point 19 :  -0.3125 0.3125 0.0625  plane waves:     611
 k-point 20 :  -0.1875 0.3125 0.0625  plane waves:     609
 k-point 21 :  -0.0625 0.3125 0.0625  plane waves:     607
 k-point 22 :   0.4375 0.4375 0.0625  plane waves:     614
 k-point 23 :  -0.4375 0.4375 0.0625  plane waves:     615
 k-point 24 :  -0.3125 0.4375 0.0625  plane waves:     611
 k-point 25 :  -0.1875 0.4375 0.0625  plane waves:     609
 k-point 26 :  -0.0625 0.4375 0.0625  plane waves:     604
 k-point 27 :  -0.4375-0.4375 0.0625  plane waves:     612
 k-point 28 :  -0.3125-0.4375 0.0625  plane waves:     611
 k-point 29 :  -0.1875-0.4375 0.0625  plane waves:     608
 k-point 30 :  -0.3125-0.3125 0.0625  plane waves:     611
 k-point 31 :  -0.1875-0.3125 0.0625  plane waves:     606
 k-point 32 :  -0.1875-0.1875 0.0625  plane waves:     599
 k-point 33 :   0.1875 0.1875 0.1875  plane waves:     592
 k-point 34 :   0.3125 0.1875 0.1875  plane waves:     607
 k-point 35 :   0.4375 0.1875 0.1875  plane waves:     609
 k-point 36 :  -0.4375 0.1875 0.1875  plane waves:     603
 k-point 37 :  -0.3125 0.1875 0.1875  plane waves:     608
 k-point 38 :  -0.1875 0.1875 0.1875  plane waves:     608
 k-point 39 :   0.3125 0.3125 0.1875  plane waves:     606
 k-point 40 :   0.4375 0.3125 0.1875  plane waves:     609
 k-point 41 :  -0.4375 0.3125 0.1875  plane waves:     609
 k-point 42 :  -0.3125 0.3125 0.1875  plane waves:     613
 k-point 43 :  -0.1875 0.3125 0.1875  plane waves:     610
 k-point 44 :   0.4375 0.4375 0.1875  plane waves:     607
 k-point 45 :  -0.4375 0.4375 0.1875  plane waves:     611
 k-point 46 :  -0.3125 0.4375 0.1875  plane waves:     615
 k-point 47 :  -0.1875 0.4375 0.1875  plane waves:     613
 k-point 48 :  -0.4375-0.4375 0.1875  plane waves:     615
 k-point 49 :  -0.3125-0.4375 0.1875  plane waves:     612
 k-point 50 :  -0.3125-0.3125 0.1875  plane waves:     612
 k-point 51 :   0.3125 0.3125 0.3125  plane waves:     607
 k-point 52 :   0.4375 0.3125 0.3125  plane waves:     607
 k-point 53 :  -0.4375 0.3125 0.3125  plane waves:     608
 k-point 54 :  -0.3125 0.3125 0.3125  plane waves:     610
 k-point 55 :   0.4375 0.4375 0.3125  plane waves:     605
 k-point 56 :  -0.4375 0.4375 0.3125  plane waves:     609
 k-point 57 :  -0.3125 0.4375 0.3125  plane waves:     608
 k-point 58 :  -0.4375-0.4375 0.3125  plane waves:     609
 k-point 59 :   0.4375 0.4375 0.4375  plane waves:     604
 k-point 60 :  -0.4375 0.4375 0.4375  plane waves:     605

 maximum and minimum number of plane-waves per node :       615      592

 maximum number of plane-waves:       615
 maximum index in each direction: 
   IXMAX=    6   IYMAX=    6   IZMAX=    5
   IXMIN=   -6   IYMIN=   -6   IZMIN=   -6


 serial   3D FFT for wavefunctions
 parallel 3D FFT for charge:
    minimum data exchange during FFTs selected (reduces bandwidth)


 total amount of memory used by VASP MPI-rank0    33805. kBytes
=======================================================================

   base      :      30000. kBytes
   nonl-proj :       2385. kBytes
   fftplans  :        247. kBytes
   grid      :        561. kBytes
   one-center:          6. kBytes
   wavefun   :        606. kBytes
 
     INWAV:  cpu time    0.0000: real time    0.0003
 Broyden mixing: mesh for mixing (old mesh)
   NGX = 11   NGY = 11   NGZ = 11
  (NGX  = 36   NGY  = 36   NGZ  = 36)
  gives a total of   1331 points

 initial charge density was supplied:
 charge density of overlapping atoms calculated
 number of electron       8.0000000 magnetization 
 keeping initial charge density in first step


--------------------------------------------------------------------------------------------------------


 Maximum index for augmentation-charges          733 (set IRDMAX)


--------------------------------------------------------------------------------------------------------


 First call to EWALD:  gamma=   0.515
 Maximum number of real-space cells 3x 3x 3
 Maximum number of reciprocal cells 3x 3x 3

    FEWALD:  cpu time    0.0080: real time    0.0081


--------------------------------------- Iteration      1(   1)  ---------------------------------------


    POTLOK:  cpu time    0.0360: real time    0.0475
    SETDIJ:  cpu time    0.0120: real time    0.0101
     EDDAV:  cpu time    0.7960: real time    0.8002
       DOS:  cpu time    0.0040: real time    0.0037
    --------------------------------------------
      LOOP:  cpu time    0.8480: real time    0.8622

 eigenvalue-minimisations  :   960
 total energy-change (2. order) : 0.2781391E+01  (-0.2657954E+03)
 number of electron       8.0000000 magnetization 
 augmentation part        8.0000000 magnetization 

 Free energy of the ion-electron system (eV)
  ---------------------------------------------------
  alpha Z        PSCENC =         3.29341010
  Ewald energy   TEWEN  =      -226.95029702
  -Hartree energ DENC   =       -11.32230323
  -exchange      EXHF   =         0.00000000
  -V(xc)+E(xc)   XCENC  =       -18.68488566
  PAW double counting   =        65.95520812      -30.76852678
  entropy T*S    EENTRO =        -0.00959765
  eigenvalues    EBANDS =        15.13712937
  atomic energy  EATOM  =       206.13125414
  Solvation  Ediel_sol  =         0.00000000
  ---------------------------------------------------
  free energy    TOTEN  =         2.78139140 eV

  energy without entropy =        2.79098905  energy(sigma->0) =        2.78619022


--------------------------------------------------------------------------------------------------------




--------------------------------------- Iteration      1(   2)  ---------------------------------------


     EDDAV:  cpu time    1.2000: real time    1.2108
       DOS:  cpu time    0.0040: real time    0.0031
    --------------------------------------------
      LOOP:  cpu time    1.2040: real time    1.2139

 eigenvalue-minimisations  :  1488
 total energy-change (2. order) :-0.1363400E+02  (-0.1322387E+02)
 number of electron       8.0000000 magnetization 
 augmentation part        8.0000000 magnetization 

 Free energy of the ion-electron system (eV)
  ---------------------------------------------------
  alpha Z        PSCENC =         3.29341010
  Ewald energy   TEWEN  =      -226.95029702
  -Hartree energ DENC   =       -11.32230323
  -exchange      EXHF   =         0.00000000
  -V(xc)+E(xc)   XCENC  =       -18.68488566
  PAW double counting   =        65.95520812      -30.76852678
  entropy T*S    EENTRO =        -0.00000089
  eigenvalues    EBANDS =         1.49352784
  atomic energy  EATOM  =       206.13125414
  Solvation  Ediel_sol  =         0.00000000
  ---------------------------------------------------
  free energy    TOTEN  =       -10.85261338 eV

  energy without entropy =      -10.85261249  energy(sigma->0) =      -10.85261293


--------------------------------------------------------------------------------------------------------




--------------------------------------- Iteration      1(   3)  ---------------------------------------


     EDDAV:  cpu time    0.9760: real time    0.9819
       DOS:  cpu time    0.0040: real time    0.0031
    --------------------------------------------
      LOOP:  cpu time    0.9800: real time    0.9849

 eigenvalue-minimisations  :  1184
 total energy-change (2. order) :-0.1624846E+00  (-0.1624846E+00)
 number of electron       8.0000000 magnetization 
 augmentation part        8.0000000 magnetization 

 Free energy of the ion-electron system (eV)
  ---------------------------------------------------
  alpha Z        PSCENC =         3.29341010
  Ewald energy   TEWEN  =      -226.95029702
  -Hartree energ DENC   =       -11.32230323
  -exchange      EXHF   =         0.00000000
  -V(xc)+E(xc)   XCENC  =       -18.68488566
  PAW double counting   =        65.95520812      -30.76852678
  entropy T*S    EENTRO =        -0.00000089
  eigenvalues    EBANDS =         1.33104324
  atomic energy  EATOM  =       206.13125414
  Solvation  Ediel_sol  =         0.00000000
  ---------------------------------------------------
  free energy    TOTEN  =       -11.01509798 eV

  energy without entropy =      -11.01509709  energy(sigma->0) =      -11.01509753


--------------------------------------------------------------------------------------------------------




--------------------------------------- Iteration      1(   4)  ---------------------------------------


     EDDAV:  cpu time    1.2760: real time    1.2801
       DOS:  cpu time    0.0040: real time    0.0032
    --------------------------------------------
      LOOP:  cpu time    1.2800: real time    1.2832

 eigenvalue-minimisations  :  1568
 total energy-change (2. order) :-0.7191513E-03  (-0.7191510E-03)
 number of electron       8.0000000 magnetization 
 augmentation part        8.0000000 magnetization 

 Free energy of the ion-electron system (eV)
  ---------------------------------------------------
  alpha Z        PSCENC =         3.29341010
  Ewald energy   TEWEN  =      -226.95029702
  -Hartree energ DENC   =       -11.32230323
  -exchange      EXHF   =         0.00000000
  -V(xc)+E(xc)   XCENC  =       -18.68488566
  PAW double counting   =        65.95520812      -30.76852678
  entropy T*S    EENTRO =        -0.00000089
  eigenvalues    EBANDS =         1.33032409
  atomic energy  EATOM  =       206.13125414
  Solvation  Ediel_sol  =         0.00000000
  ---------------------------------------------------
  free energy    TOTEN  =       -11.01581713 eV

  energy without entropy =      -11.01581624  energy(sigma->0) =      -11.01581668


--------------------------------------------------------------------------------------------------------




--------------------------------------- Iteration      1(   5)  ---------------------------------------


     EDDAV:  cpu time    1.0240: real time    1.0287
       DOS:  cpu time    0.0040: real time    0.0034
    CHARGE:  cpu time    0.0600: real time    0.0618
    MIXING:  cpu time    0.0000: real time    0.0023
    --------------------------------------------
      LOOP:  cpu time    1.0920: real time    1.0964

 eigenvalue-minimisations  :  1248
 total energy-change (2. order) :-0.4640074E-06  (-0.4647716E-06)
 number of electron       7.9999991 magnetization 
 augmentation part       -0.4696667 magnetization 

 Broyden mixing:
  rms(total) = 0.29564E+00    rms(broyden)= 0.29563E+00
  rms(prec ) = 0.85260E+00
  weight for this iteration     100.00

 Free energy of the ion-electron system (eV)
  ---------------------------------------------------
  alpha Z        PSCENC =         3.29341010
  Ewald energy   TEWEN  =      -226.95029702
  -Hartree energ DENC   =       -11.32230323
  -exchange      EXHF   =         0.00000000
  -V(xc)+E(xc)   XCENC  =       -18.68488566
  PAW double counting   =        65.95520812      -30.76852678
  entropy T*S    EENTRO =        -0.00000089
  eigenvalues    EBANDS =         1.33032362
  atomic energy  EATOM  =       206.13125414
  Solvation  Ediel_sol  =         0.00000000
  ---------------------------------------------------
  free energy    TOTEN  =       -11.01581759 eV

  energy without entropy =      -11.01581670  energy(sigma->0) =      -11.01581715


--------------------------------------------------------------------------------------------------------




--------------------------------------- Iteration      1(   6)  ---------------------------------------


    POTLOK:  cpu time    0.0280: real time    0.0329
    SETDIJ:  cpu time    0.0120: real time    0.0087
     EDDAV:  cpu time    0.9560: real time    0.9583
       DOS:  cpu time    0.0040: real time    0.0032
    CHARGE:  cpu time    0.0600: real time    0.0613
    MIXING:  cpu time    0.0040: real time    0.0023
    --------------------------------------------
      LOOP:  cpu time    1.0600: real time    1.0669

 eigenvalue-minimisations  :  1168
 total energy-change (2. order) : 0.1158073E+00  (-0.7551344E-02)
 number of electron       7.9999991 magnetization 
 augmentation part       -0.4641026 magnetization 

 Broyden mixing:
  rms(total) = 0.17567E+00    rms(broyden)= 0.17566E+00
  rms(prec ) = 0.50356E+00
  weight for this iteration     100.00

 eigenvalues of (default mixing * dielectric matrix)
  average eigenvalue GAMMA=   2.4438
  2.4438

 Free energy of the ion-electron system (eV)
  ---------------------------------------------------
  alpha Z        PSCENC =         3.29341010
  Ewald energy   TEWEN  =      -226.95029702
  -Hartree energ DENC   =       -12.78529850
  -exchange      EXHF   =         0.00000000
  -V(xc)+E(xc)   XCENC  =       -18.45367119
  PAW double counting   =        69.67757534      -34.59367592
  entropy T*S    EENTRO =        -0.00000559
  eigenvalues    EBANDS =         2.78069837
  atomic energy  EATOM  =       206.13125414
  Solvation  Ediel_sol  =         0.00000000
  ---------------------------------------------------
  free energy    TOTEN  =       -10.90001026 eV

  energy without entropy =      -10.90000468  energy(sigma->0) =      -10.90000747


--------------------------------------------------------------------------------------------------------




--------------------------------------- Iteration      1(   7)  ---------------------------------------


    POTLOK:  cpu time    0.0280: real time    0.0337
    SETDIJ:  cpu time    0.0080: real time    0.0087
     EDDAV:  cpu time    0.9720: real time    0.9740
       DOS:  cpu time    0.0040: real time    0.0033
    CHARGE:  cpu time    0.0600: real time    0.0602
    MIXING:  cpu time    0.0000: real time    0.0018
    --------------------------------------------
      LOOP:  cpu time    1.0720: real time    1.0816

 eigenvalue-minimisations  :  1200
 total energy-change (2. order) : 0.5363016E-01  (-0.1417036E-01)
 number of electron       7.9999992 magnetization 
 augmentation part       -0.4574114 magnetization 

 Broyden mixing:
  rms(total) = 0.14939E-01    rms(broyden)= 0.14939E-01
  rms(prec ) = 0.38805E-01
  weight for this iteration     100.00

 eigenvalues of (default mixing * dielectric matrix)
  average eigenvalue GAMMA=   2.4654
  2.4654  2.4654

 Free energy of the ion-electron system (eV)
  ---------------------------------------------------
  alpha Z        PSCENC =         3.29341010
  Ewald energy   TEWEN  =      -226.95029702
  -Hartree energ DENC   =       -15.15533937
  -exchange      EXHF   =         0.00000000
  -V(xc)+E(xc)   XCENC  =       -18.07166353
  PAW double counting   =        74.57936675      -39.62643656
  entropy T*S    EENTRO =        -0.00004297
  eigenvalues    EBANDS =         4.95336836
  atomic energy  EATOM  =       206.13125414
  Solvation  Ediel_sol  =         0.00000000
  ---------------------------------------------------
  free energy    TOTEN  =       -10.84638010 eV

  energy without entropy =      -10.84633713  energy(sigma->0) =      -10.84635862


--------------------------------------------------------------------------------------------------------




--------------------------------------- Iteration      1(   8)  ---------------------------------------


    POTLOK:  cpu time    0.0280: real time    0.0355
    SETDIJ:  cpu time    0.0080: real time    0.0087
     EDDAV:  cpu time    0.9280: real time    0.9269
       DOS:  cpu time    0.0040: real time    0.0034
    CHARGE:  cpu time    0.0600: real time    0.0601
    MIXING:  cpu time    0.0000: real time    0.0018
    --------------------------------------------
      LOOP:  cpu time    1.0280: real time    1.0365

 eigenvalue-minimisations  :  1136
 total energy-change (2. order) :-0.1324043E-02  (-0.4032533E-03)
 number of electron       7.9999992 magnetization 
 augmentation part       -0.4583867 magnetization 

 Broyden mixing:
  rms(total) = 0.25089E-02    rms(broyden)= 0.25080E-02
  rms(prec ) = 0.83079E-02
  weight for this iteration     100.00

 eigenvalues of (default mixing * dielectric matrix)
  average eigenvalue GAMMA=   2.1218
  1.3479  2.8007  2.2168

 Free energy of the ion-electron system (eV)
  ---------------------------------------------------
  alpha Z        PSCENC =         3.29341010
  Ewald energy   TEWEN  =      -226.95029702
  -Hartree energ DENC   =       -15.12039712
  -exchange      EXHF   =         0.00000000
  -V(xc)+E(xc)   XCENC  =       -18.06465299
  PAW double counting   =        73.69699583      -38.71615344
  entropy T*S    EENTRO =        -0.00003347
  eigenvalues    EBANDS =         4.88216981
  atomic energy  EATOM  =       206.13125414
  Solvation  Ediel_sol  =         0.00000000
  ---------------------------------------------------
  free energy    TOTEN  =       -10.84770414 eV

  energy without entropy =      -10.84767068  energy(sigma->0) =      -10.84768741


--------------------------------------------------------------------------------------------------------




--------------------------------------- Iteration      1(   9)  ---------------------------------------


    POTLOK:  cpu time    0.0280: real time    0.0340
    SETDIJ:  cpu time    0.0120: real time    0.0087
     EDDAV:  cpu time    0.7080: real time    0.7110
       DOS:  cpu time    0.0040: real time    0.0032
    --------------------------------------------
      LOOP:  cpu time    0.7520: real time    0.7569

 eigenvalue-minimisations  :   792
 total energy-change (2. order) :-0.9720857E-04  (-0.9941606E-05)
 number of electron       7.9999992 magnetization 
 augmentation part       -0.4583867 magnetization 

 Free energy of the ion-electron system (eV)
  ---------------------------------------------------
  alpha Z        PSCENC =         3.29341010
  Ewald energy   TEWEN  =      -226.95029702
  -Hartree energ DENC   =       -15.15953145
  -exchange      EXHF   =         0.00000000
  -V(xc)+E(xc)   XCENC  =       -18.05817841
  PAW double counting   =        73.68379024      -38.70287909
  entropy T*S    EENTRO =        -0.00003316
  eigenvalues    EBANDS =         4.91466330
  atomic energy  EATOM  =       206.13125414
  Solvation  Ediel_sol  =         0.00000000
  ---------------------------------------------------
  free energy    TOTEN  =       -10.84780135 eV

  energy without entropy =      -10.84776819  energy(sigma->0) =      -10.84778477


--------------------------------------------------------------------------------------------------------




 average (electrostatic) potential at core
  the test charge radii are     0.9892
  (the norm of the test charge is              1.0000)
       1 -83.4861       2 -83.4861
 
 
 
 E-fermi :   5.9389     XC(G=0):  -9.3307     alpha+bet :-11.7326


 k-point     1 :       0.0625    0.0625    0.0625
  band No.  band energies     occupation 
      1      -6.1497      2.00000
      2       5.0849      2.00000
      3       5.5336      1.99584
      4       5.5336      1.99584
      5       8.2140      0.00000
      6       8.2957      0.00000
      7       8.2957      0.00000
      8       9.1552      0.00000

 k-point     2 :       0.1875    0.0625    0.0625
  band No.  band energies     occupation 
      1      -5.8833      2.00000
      2       3.5850      2.00000
      3       4.7326      2.00000
      4       5.4167      1.99978
      5       8.2660      0.00000
      6       8.5390      0.00000
      7       8.8280      0.00000
      8      10.6243      0.00000

 k-point     3 :       0.3125    0.0625    0.0625
  band No.  band energies     occupation 
      1      -5.2407      2.00000
      2       1.3724      2.00000
      3       4.2477      2.00000
      4       4.9578      2.00000
      5       7.8186      0.00000
      6       9.0288      0.00000
      7       9.3126      0.00000
      8      12.1599      0.00000

 k-point     4 :       0.4375    0.0625    0.0625
  band No.  band energies     occupation 
      1      -4.3446      2.00000
      2      -0.5022      2.00000
      3       4.0325      2.00000
      4       4.5537      2.00000
      5       7.5043      0.00000
      6       9.0903      0.00000
      7       9.1036      0.00000
      8      13.4000      0.00000

 k-point     5 :      -0.4375    0.0625    0.0625
  band No.  band energies     occupation 
      1      -3.8999      2.00000
      2      -1.1976      2.00000
      3       4.0817      2.00000
      4       4.3370      2.00000
      5       7.4244      0.00000
      6       8.8973      0.00000
      7       9.1668      0.00000
      8      13.4704      0.00000

 k-point     6 :      -0.3125    0.0625    0.0625
  band No.  band energies     occupation 
      1      -4.6514      2.00000
      2       0.0520      2.00000
      3       4.3576      2.00000
      4       4.3664      2.00000
      5       7.5905      0.00000
      6       8.9048      0.00000
      7       9.4240      0.00000
      8      12.5213      0.00000

 k-point     7 :      -0.1875    0.0625    0.0625
  band No.  band energies     occupation 
      1      -5.4926      2.00000
      2       2.0980      2.00000
      3       4.6318      2.00000
      4       4.8280      2.00000
      5       7.9455      0.00000
      6       8.7681      0.00000
      7       9.4817      0.00000
      8      11.3400      0.00000

 k-point     8 :      -0.0625    0.0625    0.0625
  band No.  band energies     occupation 
      1      -6.0158      2.00000
      2       4.3352      2.00000
      3       5.1102      2.00000
      4       5.2678      2.00000
      5       8.0105      0.00000
      6       8.5810      0.00000
      7       8.8724      0.00000
      8       9.8923      0.00000

 k-point     9 :       0.1875    0.1875    0.0625
  band No.  band energies     occupation 
      1      -5.7493      2.00000
      2       3.4432      2.00000
      3       4.5564      2.00000
      4       4.6390      2.00000
      5       7.5913      0.00000
      6       9.3362      0.00000
      7       9.7262      0.00000
      8      10.2381      0.00000

 k-point    10 :       0.3125    0.1875    0.0625
  band No.  band energies     occupation 
      1      -5.2282      2.00000
      2       1.9494      2.00000
      3       3.5924      2.00000
      4       4.3821      2.00000
      5       7.7587      0.00000
      6       9.4462      0.00000
      7      10.0606      0.00000
      8      10.5178      0.00000

 k-point    11 :       0.4375    0.1875    0.0625
  band No.  band energies     occupation 
      1      -4.3889      2.00000
      2       0.1033      2.00000
      3       3.0994      2.00000
      4       3.9745      2.00000
      5       7.9514      0.00000
      6       9.3724      0.00000
      7      10.5460      0.00000
      8      10.8095      0.00000

 k-point    12 :      -0.4375    0.1875    0.0625
  band No.  band energies     occupation 
      1      -3.6330      2.00000
      2      -1.0975      2.00000
      3       2.8121      2.00000
      4       3.8821      2.00000
      5       8.0209      0.00000
      6       9.0667      0.00000
      7      10.3920      0.00000
      8      12.8246      0.00000

 k-point    13 :      -0.3125    0.1875    0.0625
  band No.  band energies     occupation 
      1      -4.0874      2.00000
      2      -0.4125      2.00000
      3       2.7395      2.00000
      4       4.1649      2.00000
      5       8.3005      0.00000
      6       8.9795      0.00000
      7      10.3376      0.00000
      8      12.0772      0.00000

 k-point    14 :      -0.1875    0.1875    0.0625
  band No.  band energies     occupation 
      1      -4.9819      2.00000
      2       1.3036      2.00000
      3       3.0400      2.00000
      4       4.6692      2.00000
      5       8.6119      0.00000
      6       8.9165      0.00000
      7      10.2155      0.00000
      8      10.6861      0.00000

 k-point    15 :      -0.0625    0.1875    0.0625
  band No.  band energies     occupation 
      1      -5.6198      2.00000
      2       2.7719      2.00000
      3       4.1593      2.00000
      4       5.0400      2.00000
      5       8.1528      0.00000
      6       8.8175      0.00000
      7       9.5387      0.00000
      8      10.7625      0.00000

 k-point    16 :       0.3125    0.3125    0.0625
  band No.  band energies     occupation 
      1      -4.8302      2.00000
      2       1.4467      2.00000
      3       3.4520      2.00000
      4       3.5731      2.00000
      5       6.7837      0.00000
      6       8.4353      0.00000
      7      11.5781      0.00000
      8      11.7207      0.00000

 k-point    17 :       0.4375    0.3125    0.0625
  band No.  band energies     occupation 
      1      -4.0833      2.00000
      2       0.2170      2.00000
      3       2.6699      2.00000
      4       3.2285      2.00000
      5       7.0962      0.00000
      6       8.2745      0.00000
      7      11.5395      0.00000
      8      12.7086      0.00000

 k-point    18 :      -0.4375    0.3125    0.0625
  band No.  band energies     occupation 
      1      -3.1916      2.00000
      2      -0.9724      2.00000
      3       1.8348      2.00000
      4       3.1972      2.00000
      5       7.3297      0.00000
      6       9.9279      0.00000
      7      11.1158      0.00000
      8      12.6219      0.00000

 k-point    19 :      -0.3125    0.3125    0.0625
  band No.  band energies     occupation 
      1      -3.2626      2.00000
      2      -0.8790      2.00000
      3       1.4841      2.00000
      4       3.5393      2.00000
      5       7.7308      0.00000
      6      10.6574      0.00000
      7      11.9588      0.00000
      8      12.2425      0.00000

 k-point    20 :      -0.1875    0.3125    0.0625
  band No.  band energies     occupation 
      1      -4.1528      2.00000
      2       0.0683      2.00000
      3       2.0844      2.00000
      4       4.1208      2.00000
      5       8.3601      0.00000
      6       9.5584      0.00000
      7      10.9845      0.00000
      8      11.2543      0.00000

 k-point    21 :      -0.0625    0.3125    0.0625
  band No.  band energies     occupation 
      1      -4.8694      2.00000
      2       0.7030      2.00000
      3       3.7073      2.00000
      4       4.5707      2.00000
      5       8.0773      0.00000
      6       8.9312      0.00000
      7       9.7825      0.00000
      8      11.4587      0.00000

 k-point    22 :       0.4375    0.4375    0.0625
  band No.  band energies     occupation 
      1      -3.4339      2.00000
      2      -0.6408      2.00000
      3       2.7678      2.00000
      4       2.9838      2.00000
      5       6.3906      0.00140
      6       7.0977      0.00000
      7      13.8651      0.00000
      8      13.8728      0.00000

 k-point    23 :      -0.4375    0.4375    0.0625
  band No.  band energies     occupation 
      1      -2.5298      2.00000
      2      -1.6242      2.00000
      3       2.2134      2.00000
      4       2.7416      2.00000
      5       6.8199      0.00000
      6       7.5460      0.00000
      7      13.6140      0.00000
      8      14.6316      0.00000

 k-point    24 :      -0.3125    0.4375    0.0625
  band No.  band energies     occupation 
      1      -2.6265      2.00000
      2      -1.4593      2.00000
      3       1.4883      2.00000
      4       3.0546      2.00000
      5       7.1832      0.00000
      6       9.7728      0.00000
      7      12.0941      0.00000
      8      13.2371      0.00000

 k-point    25 :      -0.1875    0.4375    0.0625
  band No.  band energies     occupation 
      1      -3.3787      2.00000
      2      -1.0529      2.00000
      3       2.0367      2.00000
      4       3.6520      2.00000
      5       7.8507      0.00000
      6       9.8088      0.00000
      7      11.3441      0.00000
      8      12.5774      0.00000

 k-point    26 :      -0.0625    0.4375    0.0625
  band No.  band energies     occupation 
      1      -3.9837      2.00000
      2      -0.9028      2.00000
      3       3.5336      2.00000
      4       4.2372      2.00000
      5       7.8772      0.00000
      6       8.8299      0.00000
      7       9.6040      0.00000
      8      13.1427      0.00000

 k-point    27 :      -0.4375   -0.4375    0.0625
  band No.  band energies     occupation 
      1      -2.5808      2.00000
      2      -1.6416      2.00000
      3       2.6310      2.00000
      4       2.8634      2.00000
      5       6.3864      0.00155
      6       6.7448      0.00000
      7      14.9385      0.00000
      8      15.0102      0.00000

 k-point    28 :      -0.3125   -0.4375    0.0625
  band No.  band energies     occupation 
      1      -3.3490      2.00000
      2      -0.7042      2.00000
      3       2.3698      2.00000
      4       2.9002      2.00000
      5       6.9076      0.00000
      6       7.7957      0.00000
      7      12.5484      0.00000
      8      13.8656      0.00000

 k-point    29 :      -0.1875   -0.4375    0.0625
  band No.  band energies     occupation 
      1      -3.8173      2.00000
      2      -0.4436      2.00000
      3       2.4300      2.00000
      4       3.4956      2.00000
      5       7.6065      0.00000
      6      10.1118      0.00000
      7      10.3377      0.00000
      8      11.5550      0.00000

 k-point    30 :      -0.3125   -0.3125    0.0625
  band No.  band energies     occupation 
      1      -4.1877      2.00000
      2       0.3986      2.00000
      3       3.0417      2.00000
      4       3.2222      2.00000
      5       6.5215      0.00004
      6       7.6726      0.00000
      7      12.7048      0.00000
      8      12.7815      0.00000

 k-point    31 :      -0.1875   -0.3125    0.0625
  band No.  band energies     occupation 
      1      -4.7135      2.00000
      2       1.1040      2.00000
      3       3.0871      2.00000
      4       3.7348      2.00000
      5       7.3865      0.00000
      6       8.9493      0.00000
      7      10.5992      0.00000
      8      11.5829      0.00000

 k-point    32 :      -0.1875   -0.1875    0.0625
  band No.  band energies     occupation 
      1      -5.3527      2.00000
      2       2.4717      2.00000
      3       3.9938      2.00000
      4       4.0255      2.00000
      5       7.1547      0.00000
      6       9.2970      0.00000
      7      10.5331      0.00000
      8      10.6956      0.00000

 k-point    33 :       0.1875    0.1875    0.1875
  band No.  band energies     occupation 
      1      -5.7525      2.00000
      2       2.8648      2.00000
      3       5.0955      2.00000
      4       5.0955      2.00000
      5       7.8190      0.00000
      6       8.9098      0.00000
      7       8.9098      0.00000
      8      11.2696      0.00000

 k-point    34 :       0.3125    0.1875    0.1875
  band No.  band energies     occupation 
      1      -5.3626      2.00000
      2       2.0285      2.00000
      3       3.5899      2.00000
      4       5.1140      2.00000
      5       8.4725      0.00000
      6       9.0317      0.00000
      7       9.3208      0.00000
      8      11.3208      0.00000

 k-point    35 :       0.4375    0.1875    0.1875
  band No.  band energies     occupation 
      1      -4.6199      2.00000
      2       0.6663      2.00000
      3       2.5145      2.00000
      4       4.6120      2.00000
      5       8.3187      0.00000
      6       9.7847      0.00000
      7       9.9859      0.00000
      8      11.6045      0.00000

 k-point    36 :      -0.4375    0.1875    0.1875
  band No.  band energies     occupation 
      1      -3.7308      2.00000
      2      -0.8139      2.00000
      3       2.3630      2.00000
      4       4.0838      2.00000
      5       7.8195      0.00000
      6       9.9617      0.00000
      7      10.1707      0.00000
      8      13.4519      0.00000

 k-point    37 :      -0.3125    0.1875    0.1875
  band No.  band energies     occupation 
      1      -3.7154      2.00000
      2      -0.8420      2.00000
      3       2.6609      2.00000
      4       3.7675      2.00000
      5       7.5421      0.00000
      6      10.0351      0.00000
      7      10.5140      0.00000
      8      11.4986      0.00000

 k-point    38 :      -0.1875    0.1875    0.1875
  band No.  band energies     occupation 
      1      -4.6031      2.00000
      2       0.6628      2.00000
      3       3.2703      2.00000
      4       3.7435      2.00000
      5       7.4745      0.00000
      6       9.6607      0.00000
      7      10.3100      0.00000
      8      10.8872      0.00000

 k-point    39 :       0.3125    0.3125    0.1875
  band No.  band energies     occupation 
      1      -5.1073      2.00000
      2       1.3662      2.00000
      3       4.0938      2.00000
      4       4.1595      2.00000
      5       7.8681      0.00000
      6       9.2417      0.00000
      7      10.1484      0.00000
      8      10.5104      0.00000

 k-point    40 :       0.4375    0.3125    0.1875
  band No.  band energies     occupation 
      1      -4.4845      2.00000
      2       0.6003      2.00000
      3       2.5711      2.00000
      4       3.9650      2.00000
      5       8.3571      0.00000
      6       9.4017      0.00000
      7       9.8793      0.00000
      8      11.4027      0.00000

 k-point    41 :      -0.4375    0.3125    0.1875
  band No.  band energies     occupation 
      1      -3.5985      2.00000
      2      -0.4956      2.00000
      3       1.7855      2.00000
      4       3.3997      2.00000
      5       8.8089      0.00000
      6       9.2922      0.00000
      7      10.5690      0.00000
      8      12.4920      0.00000

 k-point    42 :      -0.3125    0.3125    0.1875
  band No.  band energies     occupation 
      1      -3.1138      2.00000
      2      -1.1059      2.00000
      3       1.7892      2.00000
      4       3.0885      2.00000
      5       8.3388      0.00000
      6       9.6205      0.00000
      7      11.3469      0.00000
      8      12.6413      0.00000

 k-point    43 :      -0.1875    0.3125    0.1875
  band No.  band energies     occupation 
      1      -3.8816      2.00000
      2      -0.1062      2.00000
      3       2.2093      2.00000
      4       3.2668      2.00000
      5       8.0707      0.00000
      6       9.2782      0.00000
      7      10.1547      0.00000
      8      12.6215      0.00000

 k-point    44 :       0.4375    0.4375    0.1875
  band No.  band energies     occupation 
      1      -3.9904      2.00000
      2      -0.0495      2.00000
      3       2.5420      2.00000
      4       3.4147      2.00000
      5       7.0938      0.00000
      6       9.1154      0.00000
      7      11.3901      0.00000
      8      11.7060      0.00000

 k-point    45 :      -0.4375    0.4375    0.1875
  band No.  band energies     occupation 
      1      -3.1911      2.00000
      2      -0.8435      2.00000
      3       1.9669      2.00000
      4       2.7326      2.00000
      5       7.8661      0.00000
      6       8.8747      0.00000
      7      11.0413      0.00000
      8      13.8420      0.00000

 k-point    46 :      -0.3125    0.4375    0.1875
  band No.  band energies     occupation 
      1      -2.3875      2.00000
      2      -1.5947      2.00000
      3       1.6498      2.00000
      4       2.2333      2.00000
      5       8.9830      0.00000
      6       9.9047      0.00000
      7      10.5974      0.00000
      8      11.5945      0.00000

 k-point    47 :      -0.1875    0.4375    0.1875
  band No.  band energies     occupation 
      1      -2.9872      2.00000
      2      -1.0495      2.00000
      3       1.6422      2.00000
      4       2.7067      2.00000
      5       9.0793      0.00000
      6       9.5056      0.00000
      7      10.2742      0.00000
      8      12.7501      0.00000

 k-point    48 :      -0.4375   -0.4375    0.1875
  band No.  band energies     occupation 
      1      -2.5502      2.00000
      2      -1.5743      2.00000
      3       1.7540      2.00000
      4       3.0744      2.00000
      5       6.6614      0.00000
      6       8.5585      0.00000
      7      13.5277      0.00000
      8      13.7368      0.00000

 k-point    49 :      -0.3125   -0.4375    0.1875
  band No.  band energies     occupation 
      1      -2.4504      2.00000
      2      -1.6041      2.00000
      3       1.8474      2.00000
      4       2.4478      2.00000
      5       7.7609      0.00000
      6       8.6731      0.00000
      7      12.0391      0.00000
      8      13.1476      0.00000

 k-point    50 :      -0.3125   -0.3125    0.1875
  band No.  band energies     occupation 
      1      -3.2880      2.00000
      2      -0.8061      2.00000
      3       2.0193      2.00000
      4       3.1890      2.00000
      5       6.8105      0.00000
      6       8.7421      0.00000
      7      12.5486      0.00000
      8      12.6074      0.00000

 k-point    51 :       0.3125    0.3125    0.3125
  band No.  band energies     occupation 
      1      -5.0006      2.00000
      2       0.6724      2.00000
      3       4.6846      2.00000
      4       4.6846      2.00000
      5       7.3667      0.00000
      6       9.1386      0.00000
      7       9.1386      0.00000
      8      13.2500      0.00000

 k-point    52 :       0.4375    0.3125    0.3125
  band No.  band energies     occupation 
      1      -4.5236      2.00000
      2       0.0977      2.00000
      3       3.2258      2.00000
      4       4.5977      2.00000
      5       8.0832      0.00000
      6       9.3606      0.00000
      7       9.4081      0.00000
      8      12.6136      0.00000

 k-point    53 :      -0.4375    0.3125    0.3125
  band No.  band energies     occupation 
      1      -3.7357      2.00000
      2      -0.4316      2.00000
      3       1.7058      2.00000
      4       4.0199      2.00000
      5       7.7432      0.00000
      6      10.8020      0.00000
      7      10.9718      0.00000
      8      12.3732      0.00000

 k-point    54 :      -0.3125    0.3125    0.3125
  band No.  band energies     occupation 
      1      -2.9188      2.00000
      2      -1.2092      2.00000
      3       1.3691      2.00000
      4       3.4762      2.00000
      5       7.1275      0.00000
      6      11.0033      0.00000
      7      12.0687      0.00000
      8      12.3450      0.00000

 k-point    55 :       0.4375    0.4375    0.3125
  band No.  band energies     occupation 
      1      -4.2111      2.00000
      2      -0.4575      2.00000
      3       3.5606      2.00000
      4       4.0372      2.00000
      5       7.7934      0.00000
      6       9.1427      0.00000
      7       9.8878      0.00000
      8      11.9209      0.00000

 k-point    56 :      -0.4375    0.4375    0.3125
  band No.  band energies     occupation 
      1      -3.5946      2.00000
      2      -0.8149      2.00000
      3       2.2576      2.00000
      4       3.5637      2.00000
      5       8.5615      0.00000
      6       8.9061      0.00000
      7      11.4448      0.00000
      8      11.6606      0.00000

 k-point    57 :      -0.3125    0.4375    0.3125
  band No.  band energies     occupation 
      1      -2.7814      2.00000
      2      -1.2741      2.00000
      3       1.4607      2.00000
      4       2.8538      2.00000
      5       8.2103      0.00000
      6      10.4483      0.00000
      7      11.2396      0.00000
      8      11.7686      0.00000

 k-point    58 :      -0.4375   -0.4375    0.3125
  band No.  band energies     occupation 
      1      -3.2380      2.00000
      2      -1.0927      2.00000
      3       1.8663      2.00000
      4       3.5755      2.00000
      5       7.2755      0.00000
      6      10.9639      0.00000
      7      11.2762      0.00000
      8      11.3807      0.00000

 k-point    59 :       0.4375    0.4375    0.4375
  band No.  band energies     occupation 
      1      -4.1162      2.00000
      2      -0.9635      2.00000
      3       4.4650      2.00000
      4       4.4650      2.00000
      5       7.1147      0.00000
      6       8.9982      0.00000
      7       8.9982      0.00000
      8      13.3596      0.00000

 k-point    60 :      -0.4375    0.4375    0.4375
  band No.  band energies     occupation 
      1      -3.7673      2.00000
      2      -1.1381      2.00000
      3       3.2455      2.00000
      4       4.1983      2.00000
      5       7.8250      0.00000
      6       9.1323      0.00000
      7       9.5754      0.00000
      8      13.7521      0.00000


--------------------------------------------------------------------------------------------------------


 soft charge-density along one line, spin component           1
         0         1         2         3         4         5         6         7         8         9
 total charge-density along one line
 
 pseudopotential strength for first ion, spin component:           1
 18.438  -0.001  -0.000  -0.000  -0.000   0.000   0.000   0.000
 -0.001   0.006   0.000   0.000   0.000  -0.000  -0.000  -0.000
 -0.000   0.000   4.181  -0.000  -0.000  -0.004   0.000   0.000
 -0.000   0.000  -0.000   4.181  -0.000   0.000  -0.004   0.000
 -0.000   0.000  -0.000  -0.000   4.181   0.000   0.000  -0.004
  0.000  -0.000  -0.004   0.000   0.000   0.005  -0.000  -0.000
  0.000  -0.000   0.000  -0.004   0.000  -0.000   0.005  -0.000
  0.000  -0.000   0.000   0.000  -0.004  -0.000  -0.000   0.005
 total augmentation occupancy for first ion, spin component:           1
  1.496  -0.761  -0.000  -0.000   0.000   0.000   0.000   0.000
 -0.761   0.750   0.000   0.000  -0.000   0.000   0.000   0.000
 -0.000   0.000   1.016  -0.000   0.000  -0.555   0.000  -0.000
 -0.000   0.000  -0.000   1.016   0.000   0.000  -0.555  -0.000
  0.000  -0.000   0.000   0.000   1.016  -0.000  -0.000  -0.555
  0.000   0.000  -0.555   0.000  -0.000   0.357  -0.000   0.000
  0.000   0.000   0.000  -0.555  -0.000  -0.000   0.357   0.000
  0.000   0.000  -0.000  -0.000  -0.555   0.000   0.000   0.357


------------------------ aborting loop because EDIFF is reached ----------------------------------------


    CHARGE:  cpu time    0.0600: real time    0.0598
    FORLOC:  cpu time    0.0000: real time    0.0009
    FORNL :  cpu time    0.0240: real time    0.0237
    STRESS:  cpu time    0.2720: real time    0.2735
    FORCOR:  cpu time    0.0240: real time    0.0216
    FORHAR:  cpu time    0.0040: real time    0.0054
    MIXING:  cpu time    0.0000: real time    0.0015
    OFIELD:  cpu time    0.0000: real time    0.0005

  FORCE on cell =-STRESS in cart. coord.  units (eV):
  Direction    XX          YY          ZZ          XY          YZ          ZX
  --------------------------------------------------------------------------------------
  Alpha Z     3.29341     3.29341     3.29341
  Ewald     -75.65013   -75.65013   -75.65013    -0.00000    -0.00000     0.00000
  Hartree     5.05649     5.05649     5.05649     0.00000     0.00000     0.00000
  E(xc)     -25.24614   -25.24614   -25.24614    -0.00000    -0.00000    -0.00000
  Local     -29.53379   -29.53379   -29.53379     0.00004     0.00004     0.00004
  n-local    77.37194    79.92251    75.15428     1.04487    -1.13538     0.04718
  augment   -11.65034   -11.65034   -11.65034    -0.00003    -0.00003    -0.00003
  Kinetic    57.73538    55.74600    55.24612     0.81073    -0.90580     0.04665
  Fock        0.00000     0.00000     0.00000     0.00000     0.00000     0.00000
  -------------------------------------------------------------------------------------
  Total      -0.00509    -0.00509    -0.00509     0.00000    -0.00000    -0.00000
  in kB      -0.19960    -0.19960    -0.19960     0.00000    -0.00000    -0.00000
  external pressure =       -0.20 kB  Pullay stress =        0.00 kB


 VOLUME and BASIS-vectors are now :
 -----------------------------------------------------------------------------
  energy-cutoff  :      350.00
  volume of cell :       40.89
      direct lattice vectors                 reciprocal lattice vectors
     0.000000000  2.734299000  2.734299000    -0.182862225  0.182862225  0.182862225
     2.734299000  0.000000000  2.734299000     0.182862225 -0.182862225  0.182862225
     2.734299000  2.734299000  0.000000000     0.182862225  0.182862225 -0.182862225

  length of vectors
     3.866882729  3.866882729  3.866882729     0.316726665  0.316726665  0.316726665


 FORCES acting on ions
    electron-ion (+dipol)            ewald-force                    non-local-force                 convergence-correction
 -----------------------------------------------------------------------------------------------
   0.157E-05 0.157E-05 0.159E-05   -.160E-15 -.195E-14 0.216E-14   0.105E-16 0.105E-16 0.104E-16   -.450E-06 -.450E-06 -.450E-06
   -.157E-05 -.157E-05 -.159E-05   0.456E-15 0.196E-14 -.264E-14   -.100E-16 -.100E-16 -.112E-16   0.450E-06 0.450E-06 0.450E-06
 -----------------------------------------------------------------------------------------------
   -.207E-13 -.350E-13 -.241E-13   0.296E-15 0.148E-16 -.479E-15   0.532E-18 0.532E-18 -.827E-18   -.156E-14 -.998E-16 -.118E-14
 
 
 POSITION                                       TOTAL-FORCE (eV/Angst)
 -----------------------------------------------------------------------------------
      0.00000      0.00000      0.00000         0.000000      0.000000     -0.000000
      1.36715      1.36715      1.36715        -0.000000     -0.000000      0.000000
 -----------------------------------------------------------------------------------
    total drift:                               -0.000000     -0.000000     -0.000000


--------------------------------------------------------------------------------------------------------



  FREE ENERGIE OF THE ION-ELECTRON SYSTEM (eV)
  ---------------------------------------------------
  free  energy   TOTEN  =       -10.84780135 eV

  energy  without entropy=      -10.84776819  energy(sigma->0) =      -10.84778477
 


--------------------------------------------------------------------------------------------------------


    POTLOK:  cpu time    0.0440: real time    0.0484


--------------------------------------------------------------------------------------------------------




--------------------------------------------------------------------------------------------------------


  
 reached required accuracy - stopping structural energy minimisation
 writing wavefunctions
     LOOP+:  cpu time   10.8560: real time   11.4990
    4ORBIT:  cpu time    0.0000: real time    0.0000

 total amount of memory used by VASP MPI-rank0    33805. kBytes
=======================================================================

   base      :      30000. kBytes
   nonl-proj :       2385. kBytes
   fftplans  :        247. kBytes
   grid      :        561. kBytes
   one-center:          6. kBytes
   wavefun   :        606. kBytes
 
  
  
 General timing and accounting informations for this job:
 ========================================================
  
                  Total CPU time used (sec):       16.392
                            User time (sec):       14.220
                          System time (sec):        2.172
                         Elapsed time (sec):       18.319
  
                   Maximum memory used (kb):        9784.
                   Average memory used (kb):           0.
  
                          Minor page faults:        38134
                          Major page faults:           32
                 Voluntary context switches:        39660
