 running on    8 total cores
 distrk:  each k-point on    8 cores,    1 groups
 distr:  one band on    1 cores,    8 groups
 using from now: INCAR     
 vasp.5.4.4.18Apr17-6-g9f103f2a35 (build Dec 09 2018 21:25:21) complex          
  
 POSCAR found type information on POSCAR  Si
 POSCAR found :  1 types and       2 ions
 scaLAPACK will be used

 ----------------------------------------------------------------------------- 
|                                                                             |
|           W    W    AA    RRRRR   N    N  II  N    N   GGGG   !!!           |
|           W    W   A  A   R    R  NN   N  II  NN   N  G    G  !!!           |
|           W    W  A    A  R    R  N N  N  II  N N  N  G       !!!           |
|           W WW W  AAAAAA  RRRRR   N  N N  II  N  N N  G  GGG   !            |
|           WW  WW  A    A  R   R   N   NN  II  N   NN  G    G                |
|           W    W  A    A  R    R  N    N  II  N    N   GGGG   !!!           |
|                                                                             |
|      For optimal performance we recommend to set                            |
|        NCORE= 4 - approx SQRT( number of cores)                             |
|      NCORE specifies how many cores store one orbital (NPAR=cpu/NCORE).     |
|      This setting can  greatly improve the performance of VASP for DFT.     |
|      The default,   NCORE=1            might be grossly inefficient         |
|      on modern multi-core architectures or massively parallel machines.     |
|      Do your own testing !!!!                                               |
|      Unfortunately you need to use the default for GW and RPA calculations. |
|      (for HF NCORE is supported but not extensively tested yet)             |
|                                                                             |
 ----------------------------------------------------------------------------- 

 LDA part: xc-table for Pade appr. of Perdew
 POSCAR, INCAR and KPOINTS ok, starting setup
 FFT: planning ...
 WAVECAR not read
 entering main loop
       N       E                     dE             d eps       ncg     rms          rms(c)
DAV:   1     0.278139139649E+01    0.27814E+01   -0.26580E+03   960   0.558E+02
DAV:   2    -0.108526133783E+02   -0.13634E+02   -0.13224E+02  1488   0.700E+01
DAV:   3    -0.110150979788E+02   -0.16248E+00   -0.16248E+00  1184   0.960E+00
DAV:   4    -0.110158171301E+02   -0.71915E-03   -0.71915E-03  1568   0.707E-01
DAV:   5    -0.110158175941E+02   -0.46401E-06   -0.46477E-06  1248   0.144E-02    0.296E+00
DAV:   6    -0.109000102620E+02    0.11581E+00   -0.75513E-02  1168   0.143E+00    0.176E+00
DAV:   7    -0.108463800988E+02    0.53630E-01   -0.14170E-01  1200   0.209E+00    0.149E-01
DAV:   8    -0.108477041420E+02   -0.13240E-02   -0.40325E-03  1136   0.471E-01    0.251E-02
DAV:   9    -0.108478013505E+02   -0.97209E-04   -0.99416E-05   792   0.813E-02
   1 F= -.10847801E+02 E0= -.10847785E+02  d E =-.108478E+02
 curvature:   0.00 expect dE= 0.000E+00 dE for cont linesearch  0.000E+00
 trial: gam= 0.00000 g(F)=  0.184E-45 g(S)=  0.000E+00 ort = 0.000E+00 (trialstep = 0.100E+01)
 search vector abs. value=  0.100E-09
 reached required accuracy - stopping structural energy minimisation
 writing wavefunctions
