<?xml version="1.0" encoding="ISO-8859-1"?>
<modeling>
 <generator>
  <i name="program" type="string">vasp </i>
  <i name="version" type="string">5.4.4.18Apr17-6-g9f103f2a35  </i>
  <i name="subversion" type="string">(build Dec 09 2018 21:25:21) complex            parallel </i>
  <i name="platform" type="string">IFC18.0.1.163_CrayMPICH7.7.0_MKL18.0.1.163 </i>
  <i name="date" type="string">2019 04 01 </i>
  <i name="time" type="string">15:59:46 </i>
 </generator>
 <incar>
  <i type="string" name="PREC">normal</i>
  <i type="int" name="IBRION">     2</i>
  <i name="EDIFF">      0.00040000</i>
  <i name="EDIFFG">     -0.01000000</i>
  <i type="int" name="NSW">    15</i>
  <i type="int" name="ISIF">     2</i>
  <i name="ENCUT">    350.00000000</i>
  <i type="int" name="NBANDS">     8</i>
  <i type="logical" name="LREAL"> F  </i>
  <i type="int" name="ISMEAR">     0</i>
  <i name="SIGMA">      0.20000000</i>
  <v type="int" name="KPOINT_BSE">    -1     0     0     0</v>
 </incar>
 <structure name="primitive_cell" >
  <crystal>
   <varray name="basis" >
    <v>       0.00000000       2.73429900       2.73429900 </v>
    <v>       2.73429900       0.00000000       2.73429900 </v>
    <v>       2.73429900       2.73429900       0.00000000 </v>
   </varray>
   <i name="volume">     40.88537699 </i>
   <varray name="rec_basis" >
    <v>      -0.18286223       0.18286223       0.18286223 </v>
    <v>       0.18286223      -0.18286223       0.18286223 </v>
    <v>       0.18286223       0.18286223      -0.18286223 </v>
   </varray>
  </crystal>
  <varray name="positions" >
   <v>       0.00000000       0.00000000       0.00000000 </v>
   <v>       0.25000000       0.25000000       0.25000000 </v>
  </varray>
 </structure>
 <varray name="primitive_index" >
  <v type="int" >        1 </v>
  <v type="int" >        2 </v>
 </varray>
 <kpoints>
  <generation param="Monkhorst-Pack">
   <v type="int" name="divisions">       8        8        8 </v>
   <v name="usershift">      0.00000000       0.00000000       0.00000000 </v>
   <v name="genvec1">      0.12500000       0.00000000      -0.00000000 </v>
   <v name="genvec2">      0.00000000       0.12500000       0.00000000 </v>
   <v name="genvec3">     -0.00000000      -0.00000000       0.12500000 </v>
   <v name="shift">      0.50000000       0.50000000       0.50000000 </v>
  </generation>
  <varray name="kpointlist" >
   <v>       0.06250000       0.06250000       0.06250000 </v>
   <v>       0.18750000       0.06250000       0.06250000 </v>
   <v>       0.31250000       0.06250000       0.06250000 </v>
   <v>       0.43750000       0.06250000       0.06250000 </v>
   <v>      -0.43750000       0.06250000       0.06250000 </v>
   <v>      -0.31250000       0.06250000       0.06250000 </v>
   <v>      -0.18750000       0.06250000       0.06250000 </v>
   <v>      -0.06250000       0.06250000       0.06250000 </v>
   <v>       0.18750000       0.18750000       0.06250000 </v>
   <v>       0.31250000       0.18750000       0.06250000 </v>
   <v>       0.43750000       0.18750000       0.06250000 </v>
   <v>      -0.43750000       0.18750000       0.06250000 </v>
   <v>      -0.31250000       0.18750000       0.06250000 </v>
   <v>      -0.18750000       0.18750000       0.06250000 </v>
   <v>      -0.06250000       0.18750000       0.06250000 </v>
   <v>       0.31250000       0.31250000       0.06250000 </v>
   <v>       0.43750000       0.31250000       0.06250000 </v>
   <v>      -0.43750000       0.31250000       0.06250000 </v>
   <v>      -0.31250000       0.31250000       0.06250000 </v>
   <v>      -0.18750000       0.31250000       0.06250000 </v>
   <v>      -0.06250000       0.31250000       0.06250000 </v>
   <v>       0.43750000       0.43750000       0.06250000 </v>
   <v>      -0.43750000       0.43750000       0.06250000 </v>
   <v>      -0.31250000       0.43750000       0.06250000 </v>
   <v>      -0.18750000       0.43750000       0.06250000 </v>
   <v>      -0.06250000       0.43750000       0.06250000 </v>
   <v>      -0.43750000      -0.43750000       0.06250000 </v>
   <v>      -0.31250000      -0.43750000       0.06250000 </v>
   <v>      -0.18750000      -0.43750000       0.06250000 </v>
   <v>      -0.31250000      -0.31250000       0.06250000 </v>
   <v>      -0.18750000      -0.31250000       0.06250000 </v>
   <v>      -0.18750000      -0.18750000       0.06250000 </v>
   <v>       0.18750000       0.18750000       0.18750000 </v>
   <v>       0.31250000       0.18750000       0.18750000 </v>
   <v>       0.43750000       0.18750000       0.18750000 </v>
   <v>      -0.43750000       0.18750000       0.18750000 </v>
   <v>      -0.31250000       0.18750000       0.18750000 </v>
   <v>      -0.18750000       0.18750000       0.18750000 </v>
   <v>       0.31250000       0.31250000       0.18750000 </v>
   <v>       0.43750000       0.31250000       0.18750000 </v>
   <v>      -0.43750000       0.31250000       0.18750000 </v>
   <v>      -0.31250000       0.31250000       0.18750000 </v>
   <v>      -0.18750000       0.31250000       0.18750000 </v>
   <v>       0.43750000       0.43750000       0.18750000 </v>
   <v>      -0.43750000       0.43750000       0.18750000 </v>
   <v>      -0.31250000       0.43750000       0.18750000 </v>
   <v>      -0.18750000       0.43750000       0.18750000 </v>
   <v>      -0.43750000      -0.43750000       0.18750000 </v>
   <v>      -0.31250000      -0.43750000       0.18750000 </v>
   <v>      -0.31250000      -0.31250000       0.18750000 </v>
   <v>       0.31250000       0.31250000       0.31250000 </v>
   <v>       0.43750000       0.31250000       0.31250000 </v>
   <v>      -0.43750000       0.31250000       0.31250000 </v>
   <v>      -0.31250000       0.31250000       0.31250000 </v>
   <v>       0.43750000       0.43750000       0.31250000 </v>
   <v>      -0.43750000       0.43750000       0.31250000 </v>
   <v>      -0.31250000       0.43750000       0.31250000 </v>
   <v>      -0.43750000      -0.43750000       0.31250000 </v>
   <v>       0.43750000       0.43750000       0.43750000 </v>
   <v>      -0.43750000       0.43750000       0.43750000 </v>
  </varray>
  <varray name="weights" >
   <v>       0.00390625 </v>
   <v>       0.01171875 </v>
   <v>       0.01171875 </v>
   <v>       0.01171875 </v>
   <v>       0.01171875 </v>
   <v>       0.01171875 </v>
   <v>       0.01171875 </v>
   <v>       0.01171875 </v>
   <v>       0.01171875 </v>
   <v>       0.02343750 </v>
   <v>       0.02343750 </v>
   <v>       0.02343750 </v>
   <v>       0.02343750 </v>
   <v>       0.02343750 </v>
   <v>       0.02343750 </v>
   <v>       0.01171875 </v>
   <v>       0.02343750 </v>
   <v>       0.02343750 </v>
   <v>       0.02343750 </v>
   <v>       0.02343750 </v>
   <v>       0.02343750 </v>
   <v>       0.01171875 </v>
   <v>       0.02343750 </v>
   <v>       0.02343750 </v>
   <v>       0.02343750 </v>
   <v>       0.02343750 </v>
   <v>       0.01171875 </v>
   <v>       0.02343750 </v>
   <v>       0.02343750 </v>
   <v>       0.01171875 </v>
   <v>       0.02343750 </v>
   <v>       0.01171875 </v>
   <v>       0.00390625 </v>
   <v>       0.01171875 </v>
   <v>       0.01171875 </v>
   <v>       0.01171875 </v>
   <v>       0.01171875 </v>
   <v>       0.01171875 </v>
   <v>       0.01171875 </v>
   <v>       0.02343750 </v>
   <v>       0.02343750 </v>
   <v>       0.02343750 </v>
   <v>       0.02343750 </v>
   <v>       0.01171875 </v>
   <v>       0.02343750 </v>
   <v>       0.02343750 </v>
   <v>       0.02343750 </v>
   <v>       0.01171875 </v>
   <v>       0.02343750 </v>
   <v>       0.01171875 </v>
   <v>       0.00390625 </v>
   <v>       0.01171875 </v>
   <v>       0.01171875 </v>
   <v>       0.01171875 </v>
   <v>       0.01171875 </v>
   <v>       0.02343750 </v>
   <v>       0.02343750 </v>
   <v>       0.01171875 </v>
   <v>       0.00390625 </v>
   <v>       0.01171875 </v>
  </varray>
 </kpoints>
 <parameters>
  <separator name="general" >
   <i type="string" name="SYSTEM">unknown system</i>
   <i type="logical" name="LCOMPAT"> F  </i>
  </separator>
  <separator name="electronic" >
   <i type="string" name="PREC">normal</i>
   <i name="ENMAX">    350.00000000</i>
   <i name="ENAUG">    322.06900000</i>
   <i name="EDIFF">      0.00040000</i>
   <i type="int" name="IALGO">    38</i>
   <i type="int" name="IWAVPR">    11</i>
   <i type="int" name="NBANDS">     8</i>
   <i name="NELECT">      8.00000000</i>
   <i type="int" name="TURBO">     0</i>
   <i type="int" name="IRESTART">     0</i>
   <i type="int" name="NREBOOT">     0</i>
   <i type="int" name="NMIN">     0</i>
   <i name="EREF">      0.00000000</i>
   <separator name="electronic smearing" >
    <i type="int" name="ISMEAR">     0</i>
    <i name="SIGMA">      0.20000000</i>
    <i name="KSPACING">      0.50000000</i>
    <i type="logical" name="KGAMMA"> T  </i>
   </separator>
   <separator name="electronic projectors" >
    <i type="logical" name="LREAL"> F  </i>
    <v name="ROPT">      0.00000000</v>
    <i type="int" name="LMAXPAW">  -100</i>
    <i type="int" name="LMAXMIX">     2</i>
    <i type="logical" name="NLSPLINE"> F  </i>
   </separator>
   <separator name="electronic startup" >
    <i type="int" name="ISTART">     0</i>
    <i type="int" name="ICHARG">     2</i>
    <i type="int" name="INIWAV">     1</i>
   </separator>
   <separator name="electronic spin" >
    <i type="int" name="ISPIN">     1</i>
    <i type="logical" name="LNONCOLLINEAR"> F  </i>
    <v name="MAGMOM">      1.00000000      1.00000000</v>
    <i name="NUPDOWN">     -1.00000000</i>
    <i type="logical" name="LSORBIT"> F  </i>
    <v name="SAXIS">      0.00000000      0.00000000      1.00000000</v>
    <i type="logical" name="LSPIRAL"> F  </i>
    <v name="QSPIRAL">      0.00000000      0.00000000      0.00000000</v>
    <i type="logical" name="LZEROZ"> F  </i>
   </separator>
   <separator name="electronic exchange-correlation" >
    <i type="logical" name="LASPH"> F  </i>
    <i type="logical" name="LMETAGGA"> F  </i>
   </separator>
   <separator name="electronic convergence" >
    <i type="int" name="NELM">    60</i>
    <i type="int" name="NELMDL">    -5</i>
    <i type="int" name="NELMIN">     2</i>
    <i name="ENINI">    350.00000000</i>
    <separator name="electronic convergence detail" >
     <i type="logical" name="LDIAG"> T  </i>
     <i type="logical" name="LSUBROT"> F  </i>
     <i name="WEIMIN">      0.00100000</i>
     <i name="EBREAK">      0.00001250</i>
     <i name="DEPER">      0.30000000</i>
     <i type="int" name="NRMM">     4</i>
     <i name="TIME">      0.40000000</i>
    </separator>
   </separator>
   <separator name="electronic mixer" >
    <i name="AMIX">      0.40000000</i>
    <i name="BMIX">      1.00000000</i>
    <i name="AMIN">      0.10000000</i>
    <i name="AMIX_MAG">      1.60000000</i>
    <i name="BMIX_MAG">      1.00000000</i>
    <separator name="electronic mixer details" >
     <i type="int" name="IMIX">     4</i>
     <i type="logical" name="MIXFIRST"> F  </i>
     <i type="int" name="MAXMIX">   -45</i>
     <i name="WC">    100.00000000</i>
     <i type="int" name="INIMIX">     1</i>
     <i type="int" name="MIXPRE">     1</i>
     <i type="int" name="MREMOVE">     5</i>
    </separator>
   </separator>
   <separator name="electronic dipolcorrection" >
    <i type="logical" name="LDIPOL"> F  </i>
    <i type="logical" name="LMONO"> F  </i>
    <i type="int" name="IDIPOL">     0</i>
    <i name="EPSILON">      1.00000000</i>
    <v name="DIPOL">   -100.00000000   -100.00000000   -100.00000000</v>
    <i name="EFIELD">      0.00000000</i>
   </separator>
  </separator>
  <separator name="grids" >
   <i type="int" name="NGX">    18</i>
   <i type="int" name="NGY">    18</i>
   <i type="int" name="NGZ">    18</i>
   <i type="int" name="NGXF">    36</i>
   <i type="int" name="NGYF">    36</i>
   <i type="int" name="NGZF">    36</i>
   <i type="logical" name="ADDGRID"> F  </i>
  </separator>
  <separator name="ionic" >
   <i type="int" name="NSW">    15</i>
   <i type="int" name="IBRION">     2</i>
   <i type="int" name="MDALGO">     0</i>
   <i type="int" name="ISIF">     2</i>
   <i name="PSTRESS">      0.00000000</i>
   <i name="EDIFFG">     -0.01000000</i>
   <i type="int" name="NFREE">     1</i>
   <i name="POTIM">      0.50000000</i>
   <i name="SMASS">     -3.00000000</i>
   <i name="SCALEE">      1.00000000</i>
  </separator>
  <separator name="ionic md" >
   <i name="TEBEG">      0.00010000</i>
   <i name="TEEND">      0.00010000</i>
   <i type="int" name="NBLOCK">     1</i>
   <i type="int" name="KBLOCK">    15</i>
   <i type="int" name="NPACO">   256</i>
   <i name="APACO">     16.00000000</i>
  </separator>
  <separator name="symmetry" >
   <i type="int" name="ISYM">     2</i>
   <i name="SYMPREC">      0.00001000</i>
  </separator>
  <separator name="dos" >
   <i type="int" name="LORBIT">     0</i>
   <v name="RWIGS">     -1.00000000</v>
   <i type="int" name="NEDOS">   301</i>
   <i name="EMIN">     10.00000000</i>
   <i name="EMAX">    -10.00000000</i>
   <i name="EFERMI">      0.00000000</i>
  </separator>
  <separator name="writing" >
   <i type="int" name="NWRITE">     2</i>
   <i type="logical" name="LWAVE"> T  </i>
   <i type="logical" name="LDOWNSAMPLE"> F  </i>
   <i type="logical" name="LCHARG"> T  </i>
   <i type="logical" name="LPARD"> F  </i>
   <i type="logical" name="LVTOT"> F  </i>
   <i type="logical" name="LVHAR"> F  </i>
   <i type="logical" name="LELF"> F  </i>
   <i type="logical" name="LOPTICS"> F  </i>
   <v name="STM">      0.00000000      0.00000000      0.00000000      0.00000000      0.00000000      0.00000000      0.00000000</v>
  </separator>
  <separator name="performance" >
   <i type="int" name="NPAR">     8</i>
   <i type="int" name="NSIM">     4</i>
   <i type="int" name="NBLK">    -1</i>
   <i type="logical" name="LPLANE"> T  </i>
   <i type="logical" name="LSCALAPACK"> T  </i>
   <i type="logical" name="LSCAAWARE"> F  </i>
   <i type="logical" name="LSCALU"> F  </i>
   <i type="logical" name="LASYNC"> F  </i>
   <i type="logical" name="LORBITALREAL"> F  </i>
  </separator>
  <separator name="miscellaneous" >
   <i type="int" name="IDIOT">     3</i>
   <i type="int" name="ISPECIAL">     0</i>
   <i type="logical" name="LMUSIC"> F  </i>
   <v name="POMASS">     28.08500000</v>
   <v name="DARWINR">      0.00000000</v>
   <v name="DARWINV">      1.00000000</v>
   <i type="logical" name="LCORR"> T  </i>
  </separator>
  <i type="logical" name="GGA_COMPAT"> T  </i>
  <i type="logical" name="LBERRY"> F  </i>
  <i type="int" name="ICORELEVEL">     0</i>
  <i type="logical" name="LDAU"> F  </i>
  <i type="int" name="I_CONSTRAINED_M">     0</i>
  <separator name="electronic exchange-correlation" >
   <i type="string" name="GGA">--</i>
   <i type="int" name="VOSKOWN">     0</i>
   <i type="logical" name="LHFCALC"> F  </i>
   <i type="string" name="PRECFOCK"></i>
   <i type="logical" name="LSYMGRAD"> F  </i>
   <i type="logical" name="LHFONE"> F  </i>
   <i type="logical" name="LRHFCALC"> F  </i>
   <i type="logical" name="LTHOMAS"> F  </i>
   <i type="logical" name="LMODELHF"> F  </i>
   <i name="ENCUT4O">     -1.00000000</i>
   <i type="int" name="EXXOEP">     0</i>
   <i type="int" name="FOURORBIT">     0</i>
   <i name="AEXX">      0.00000000</i>
   <i name="HFALPHA">      0.00000000</i>
   <i name="MCALPHA">      0.00000000</i>
   <i name="ALDAX">      1.00000000</i>
   <i name="AGGAX">      1.00000000</i>
   <i name="ALDAC">      1.00000000</i>
   <i name="AGGAC">      1.00000000</i>
   <i type="int" name="NKREDX">     1</i>
   <i type="int" name="NKREDY">     1</i>
   <i type="int" name="NKREDZ">     1</i>
   <i type="logical" name="SHIFTRED"> F  </i>
   <i type="logical" name="ODDONLY"> F  </i>
   <i type="logical" name="EVENONLY"> F  </i>
   <i type="int" name="LMAXFOCK">     0</i>
   <i type="int" name="NMAXFOCKAE">     0</i>
   <i type="logical" name="LFOCKAEDFT"> F  </i>
   <i name="HFSCREEN">      0.00000000</i>
   <i name="HFSCREENC">      0.00000000</i>
   <i type="int" name="NBANDSGWLOW">     0</i>
  </separator>
  <separator name="vdW DFT" >
   <i type="logical" name="LUSE_VDW"> F  </i>
   <i name="Zab_VDW">     -0.84910000</i>
   <i name="PARAM1">      0.12340000</i>
   <i name="PARAM2">      1.00000000</i>
   <i name="PARAM3">      0.00000000</i>
  </separator>
  <separator name="model GW" >
   <i type="int" name="MODEL_GW">     0</i>
   <i name="MODEL_EPS0">     12.26561310</i>
   <i name="MODEL_ALPHA">      1.00000000</i>
  </separator>
  <separator name="linear response parameters" >
   <i type="logical" name="LEPSILON"> F  </i>
   <i type="logical" name="LRPA"> F  </i>
   <i type="logical" name="LNABLA"> F  </i>
   <i type="logical" name="LVEL"> F  </i>
   <i type="int" name="KINTER">     0</i>
   <i name="CSHIFT">      0.10000000</i>
   <i name="OMEGAMAX">     -1.00000000</i>
   <i name="DEG_THRESHOLD">      0.00200000</i>
   <i name="RTIME">     -0.10000000</i>
   <i name="WPLASMAI">      0.00000000</i>
   <v name="DFIELD">      0.00000000      0.00000000      0.00000000</v>
   <v name="WPLASMA">      0.00000000      0.00000000      0.00000000      0.00000000      0.00000000      0.00000000      0.00000000      0.00000000      0.00000000</v>
  </separator>
  <separator name="orbital magnetization" >
   <i type="logical" name="NUCIND"> F  </i>
   <v name="MAGPOS">      0.00000000      0.00000000      0.00000000</v>
   <i type="logical" name="LNICSALL"> T  </i>
   <i type="logical" name="ORBITALMAG"> F  </i>
   <i type="logical" name="LMAGBLOCH"> F  </i>
   <i type="logical" name="LCHIMAG"> F  </i>
   <i type="logical" name="LGAUGE"> T  </i>
   <i type="int" name="MAGATOM">     0</i>
   <v name="MAGDIPOL">      0.00000000      0.00000000      0.00000000</v>
   <v name="AVECCONST">      0.00000000      0.00000000      0.00000000</v>
  </separator>
  <separator name="response functions" >
   <i type="logical" name="LADDER"> F  </i>
   <i type="logical" name="LRPAFORCE"> F  </i>
   <i type="logical" name="LFXC"> F  </i>
   <i type="logical" name="LHARTREE"> T  </i>
   <i type="int" name="IBSE">     0</i>
   <v type="int" name="KPOINT">    -1     0     0     0</v>
   <i type="logical" name="LTCTE"> F  </i>
   <i type="logical" name="LTETE"> F  </i>
   <i type="logical" name="LTRIPLET"> F  </i>
   <i type="logical" name="LFXCEPS"> F  </i>
   <i type="logical" name="LFXHEG"> F  </i>
   <i type="int" name="NATURALO">     2</i>
   <i type="logical" name="L2ORDER"> F  </i>
   <i type="logical" name="LMP2LT"> F  </i>
   <i type="logical" name="LUSEW"> F  </i>
   <i name="ENCUTGW">     -2.00000000</i>
   <i name="ENCUTGWSOFT">     -2.00000000</i>
   <i name="ENCUTLF">     -1.00000000</i>
   <i type="int" name="LMAXMP2">    -1</i>
   <i name="SCISSOR">      0.00000000</i>
   <i type="int" name="NOMEGA">     0</i>
   <i type="int" name="NOMEGAR">     0</i>
   <i type="int" name="NBANDSGW">    -1</i>
   <i type="int" name="NBANDSO">    -1</i>
   <i type="int" name="NBANDSV">    -1</i>
   <i type="int" name="NELM">     1</i>
   <i type="int" name="NELMHF">     1</i>
   <i type="int" name="DIM">     3</i>
   <i type="int" name="ANTIRES">     0</i>
   <i name="OMEGAMAX">    -30.00000000</i>
   <i name="OMEGAMIN">    -30.00000000</i>
   <i name="OMEGATL">   -200.00000000</i>
   <i type="int" name="OMEGAGRID">   140</i>
   <i name="CSHIFT">     -0.10000000</i>
   <i type="logical" name="SELFENERGY"> F  </i>
   <i type="logical" name="LSPECTRAL"> F  </i>
   <i type="logical" name="LSPECTRALGW"> F  </i>
   <i type="logical" name="LSINGLES"> F  </i>
   <i type="logical" name="LFERMIGW"> F  </i>
   <i type="logical" name="ODDONLYGW"> F  </i>
   <i type="logical" name="EVENONLYGW"> F  </i>
   <i type="int" name="NKREDLFX">     1</i>
   <i type="int" name="NKREDLFY">     1</i>
   <i type="int" name="NKREDLFZ">     1</i>
   <i type="int" name="MAXMEM">  2800</i>
   <i type="int" name="TELESCOPE">     0</i>
   <i type="int" name="TAUPAR">     1</i>
   <i type="int" name="OMEGAPAR">    -1</i>
   <i name="LAMBDA">      1.00000000</i>
  </separator>
  <separator name="External order field" >
   <i name="OFIELD_KAPPA">      0.00000000</i>
   <v name="OFIELD_K">      0.00000000      0.00000000      0.00000000</v>
   <i name="OFIELD_Q6_NEAR">      0.00000000</i>
   <i name="OFIELD_Q6_FAR">      0.00000000</i>
   <i name="OFIELD_A">      0.00000000</i>
  </separator>
 </parameters>
 <atominfo>
  <atoms>       2 </atoms>
  <types>       1 </types>
  <array name="atoms" >
   <dimension dim="1">ion</dimension>
   <field type="string">element</field>
   <field type="int">atomtype</field>
   <set>
    <rc><c>Si</c><c>   1</c></rc>
    <rc><c>Si</c><c>   1</c></rc>
   </set>
  </array>
  <array name="atomtypes" >
   <dimension dim="1">type</dimension>
   <field type="int">atomspertype</field>
   <field type="string">element</field>
   <field>mass</field>
   <field>valence</field>
   <field type="string">pseudopotential</field>
   <set>
    <rc><c>   2</c><c>Si</c><c>     28.08500000</c><c>      4.00000000</c><c> PAW_PBE Si 05Jan2001                   </c></rc>
   </set>
  </array>
 </atominfo>
 <structure name="initialpos" >
  <crystal>
   <varray name="basis" >
    <v>       0.00000000       2.73429900       2.73429900 </v>
    <v>       2.73429900       0.00000000       2.73429900 </v>
    <v>       2.73429900       2.73429900       0.00000000 </v>
   </varray>
   <i name="volume">     40.88537699 </i>
   <varray name="rec_basis" >
    <v>      -0.18286223       0.18286223       0.18286223 </v>
    <v>       0.18286223      -0.18286223       0.18286223 </v>
    <v>       0.18286223       0.18286223      -0.18286223 </v>
   </varray>
  </crystal>
  <varray name="positions" >
   <v>       0.00000000       0.00000000       0.00000000 </v>
   <v>       0.25000000       0.25000000       0.25000000 </v>
  </varray>
 </structure>
 <calculation>
  <scstep>
   <time name="dav">    0.80    0.80</time>
   <time name="total">    0.85    0.86</time>
   <energy>
    <i name="alphaZ">      3.29341010 </i>
    <i name="ewald">   -226.95029702 </i>
    <i name="hartreedc">    -11.32230323 </i>
    <i name="XCdc">    -18.68488566 </i>
    <i name="pawpsdc">     65.95520812 </i>
    <i name="pawaedc">    -30.76852678 </i>
    <i name="eentropy">     -0.00959765 </i>
    <i name="bandstr">     15.13712937 </i>
    <i name="atom">    206.13125414 </i>
    <i name="e_fr_energy">      2.78139140 </i>
    <i name="e_wo_entrp">      2.79098905 </i>
    <i name="e_0_energy">      2.78619022 </i>
   </energy>
  </scstep>
  <scstep>
   <time name="dav">    1.20    1.21</time>
   <time name="total">    1.20    1.21</time>
   <energy>
    <i name="e_fr_energy">    -10.85261338 </i>
    <i name="e_wo_entrp">    -10.85261249 </i>
    <i name="e_0_energy">    -10.85261293 </i>
   </energy>
  </scstep>
  <scstep>
   <time name="dav">    0.98    0.98</time>
   <time name="total">    0.98    0.98</time>
   <energy>
    <i name="e_fr_energy">    -11.01509798 </i>
    <i name="e_wo_entrp">    -11.01509709 </i>
    <i name="e_0_energy">    -11.01509753 </i>
   </energy>
  </scstep>
  <scstep>
   <time name="dav">    1.28    1.28</time>
   <time name="total">    1.28    1.28</time>
   <energy>
    <i name="e_fr_energy">    -11.01581713 </i>
    <i name="e_wo_entrp">    -11.01581624 </i>
    <i name="e_0_energy">    -11.01581668 </i>
   </energy>
  </scstep>
  <scstep>
   <time name="dav">    1.02    1.03</time>
   <time name="total">    1.09    1.10</time>
   <energy>
    <i name="e_fr_energy">    -11.01581759 </i>
    <i name="e_wo_entrp">    -11.01581670 </i>
    <i name="e_0_energy">    -11.01581715 </i>
   </energy>
  </scstep>
  <scstep>
   <time name="dav">    0.96    0.96</time>
   <time name="total">    1.06    1.07</time>
   <energy>
    <i name="e_fr_energy">    -10.90001026 </i>
    <i name="e_wo_entrp">    -10.90000468 </i>
    <i name="e_0_energy">    -10.90000747 </i>
   </energy>
  </scstep>
  <scstep>
   <time name="dav">    0.97    0.97</time>
   <time name="total">    1.07    1.08</time>
   <energy>
    <i name="e_fr_energy">    -10.84638010 </i>
    <i name="e_wo_entrp">    -10.84633713 </i>
    <i name="e_0_energy">    -10.84635862 </i>
   </energy>
  </scstep>
  <scstep>
   <time name="dav">    0.93    0.93</time>
   <time name="total">    1.03    1.04</time>
   <energy>
    <i name="e_fr_energy">    -10.84770414 </i>
    <i name="e_wo_entrp">    -10.84767068 </i>
    <i name="e_0_energy">    -10.84768741 </i>
   </energy>
  </scstep>
  <scstep>
   <time name="dav">    0.71    0.71</time>
   <time name="total">    0.75    0.76</time>
   <energy>
    <i name="alphaZ">      3.29341010 </i>
    <i name="ewald">   -226.95029702 </i>
    <i name="hartreedc">    -15.15953145 </i>
    <i name="XCdc">    -18.05817841 </i>
    <i name="pawpsdc">     73.68379024 </i>
    <i name="pawaedc">    -38.70287909 </i>
    <i name="eentropy">     -0.00003316 </i>
    <i name="bandstr">      4.91466330 </i>
    <i name="atom">    206.13125414 </i>
    <i name="e_fr_energy">    -10.84780135 </i>
    <i name="e_wo_entrp">    -10.84776819 </i>
    <i name="e_0_energy">    -10.84778477 </i>
   </energy>
  </scstep>
  <structure>
   <crystal>
    <varray name="basis" >
     <v>       0.00000000       2.73429900       2.73429900 </v>
     <v>       2.73429900       0.00000000       2.73429900 </v>
     <v>       2.73429900       2.73429900       0.00000000 </v>
    </varray>
    <i name="volume">     40.88537699 </i>
    <varray name="rec_basis" >
     <v>      -0.18286223       0.18286223       0.18286223 </v>
     <v>       0.18286223      -0.18286223       0.18286223 </v>
     <v>       0.18286223       0.18286223      -0.18286223 </v>
    </varray>
   </crystal>
   <varray name="positions" >
    <v>       0.00000000       0.00000000       0.00000000 </v>
    <v>       0.25000000       0.25000000       0.25000000 </v>
   </varray>
  </structure>
  <varray name="forces" >
   <v>       0.00000000       0.00000000      -0.00000000 </v>
   <v>      -0.00000000      -0.00000000       0.00000000 </v>
  </varray>
  <varray name="stress" >
   <v>      -0.19959647       0.00000000      -0.00000000 </v>
   <v>       0.00000000      -0.19959647       0.00000000 </v>
   <v>       0.00000000      -0.00000000      -0.19959647 </v>
  </varray>
  <energy>
   <i name="e_fr_energy">    -10.84780135 </i>
   <i name="e_wo_entrp">    -10.84778477 </i>
   <i name="e_0_energy">     -0.00003316 </i>
  </energy>
  <time name="totalsc">   10.86   11.50</time>
  <eigenvalues>
   <array>
    <dimension dim="1">band</dimension>
    <dimension dim="2">kpoint</dimension>
    <dimension dim="3">spin</dimension>
    <field>eigene</field>
    <field>occ</field>
    <set>
     <set comment="spin 1">
      <set comment="kpoint 1">
       <r>   -6.1497    1.0000 </r>
       <r>    5.0849    1.0000 </r>
       <r>    5.5336    0.9979 </r>
       <r>    5.5336    0.9979 </r>
       <r>    8.2140    0.0000 </r>
       <r>    8.2957    0.0000 </r>
       <r>    8.2957    0.0000 </r>
       <r>    9.1552    0.0000 </r>
      </set>
      <set comment="kpoint 2">
       <r>   -5.8833    1.0000 </r>
       <r>    3.5850    1.0000 </r>
       <r>    4.7326    1.0000 </r>
       <r>    5.4167    0.9999 </r>
       <r>    8.2660    0.0000 </r>
       <r>    8.5390    0.0000 </r>
       <r>    8.8280    0.0000 </r>
       <r>   10.6243    0.0000 </r>
      </set>
      <set comment="kpoint 3">
       <r>   -5.2407    1.0000 </r>
       <r>    1.3724    1.0000 </r>
       <r>    4.2477    1.0000 </r>
       <r>    4.9578    1.0000 </r>
       <r>    7.8186    0.0000 </r>
       <r>    9.0288    0.0000 </r>
       <r>    9.3126    0.0000 </r>
       <r>   12.1599    0.0000 </r>
      </set>
      <set comment="kpoint 4">
       <r>   -4.3446    1.0000 </r>
       <r>   -0.5022    1.0000 </r>
       <r>    4.0325    1.0000 </r>
       <r>    4.5537    1.0000 </r>
       <r>    7.5043    0.0000 </r>
       <r>    9.0903    0.0000 </r>
       <r>    9.1036    0.0000 </r>
       <r>   13.4000    0.0000 </r>
      </set>
      <set comment="kpoint 5">
       <r>   -3.8999    1.0000 </r>
       <r>   -1.1976    1.0000 </r>
       <r>    4.0817    1.0000 </r>
       <r>    4.3370    1.0000 </r>
       <r>    7.4244    0.0000 </r>
       <r>    8.8973    0.0000 </r>
       <r>    9.1668    0.0000 </r>
       <r>   13.4704    0.0000 </r>
      </set>
      <set comment="kpoint 6">
       <r>   -4.6514    1.0000 </r>
       <r>    0.0520    1.0000 </r>
       <r>    4.3576    1.0000 </r>
       <r>    4.3664    1.0000 </r>
       <r>    7.5905    0.0000 </r>
       <r>    8.9048    0.0000 </r>
       <r>    9.4240    0.0000 </r>
       <r>   12.5213    0.0000 </r>
      </set>
      <set comment="kpoint 7">
       <r>   -5.4926    1.0000 </r>
       <r>    2.0980    1.0000 </r>
       <r>    4.6318    1.0000 </r>
       <r>    4.8280    1.0000 </r>
       <r>    7.9455    0.0000 </r>
       <r>    8.7681    0.0000 </r>
       <r>    9.4817    0.0000 </r>
       <r>   11.3400    0.0000 </r>
      </set>
      <set comment="kpoint 8">
       <r>   -6.0158    1.0000 </r>
       <r>    4.3352    1.0000 </r>
       <r>    5.1102    1.0000 </r>
       <r>    5.2678    1.0000 </r>
       <r>    8.0105    0.0000 </r>
       <r>    8.5810    0.0000 </r>
       <r>    8.8724    0.0000 </r>
       <r>    9.8923    0.0000 </r>
      </set>
      <set comment="kpoint 9">
       <r>   -5.7493    1.0000 </r>
       <r>    3.4432    1.0000 </r>
       <r>    4.5564    1.0000 </r>
       <r>    4.6390    1.0000 </r>
       <r>    7.5913    0.0000 </r>
       <r>    9.3362    0.0000 </r>
       <r>    9.7262    0.0000 </r>
       <r>   10.2381    0.0000 </r>
      </set>
      <set comment="kpoint 10">
       <r>   -5.2282    1.0000 </r>
       <r>    1.9494    1.0000 </r>
       <r>    3.5924    1.0000 </r>
       <r>    4.3821    1.0000 </r>
       <r>    7.7587    0.0000 </r>
       <r>    9.4462    0.0000 </r>
       <r>   10.0606    0.0000 </r>
       <r>   10.5178    0.0000 </r>
      </set>
      <set comment="kpoint 11">
       <r>   -4.3889    1.0000 </r>
       <r>    0.1033    1.0000 </r>
       <r>    3.0994    1.0000 </r>
       <r>    3.9745    1.0000 </r>
       <r>    7.9514    0.0000 </r>
       <r>    9.3724    0.0000 </r>
       <r>   10.5460    0.0000 </r>
       <r>   10.8095    0.0000 </r>
      </set>
      <set comment="kpoint 12">
       <r>   -3.6330    1.0000 </r>
       <r>   -1.0975    1.0000 </r>
       <r>    2.8121    1.0000 </r>
       <r>    3.8821    1.0000 </r>
       <r>    8.0209    0.0000 </r>
       <r>    9.0667    0.0000 </r>
       <r>   10.3920    0.0000 </r>
       <r>   12.8246    0.0000 </r>
      </set>
      <set comment="kpoint 13">
       <r>   -4.0874    1.0000 </r>
       <r>   -0.4125    1.0000 </r>
       <r>    2.7395    1.0000 </r>
       <r>    4.1649    1.0000 </r>
       <r>    8.3005    0.0000 </r>
       <r>    8.9795    0.0000 </r>
       <r>   10.3376    0.0000 </r>
       <r>   12.0772    0.0000 </r>
      </set>
      <set comment="kpoint 14">
       <r>   -4.9819    1.0000 </r>
       <r>    1.3036    1.0000 </r>
       <r>    3.0400    1.0000 </r>
       <r>    4.6692    1.0000 </r>
       <r>    8.6119    0.0000 </r>
       <r>    8.9165    0.0000 </r>
       <r>   10.2155    0.0000 </r>
       <r>   10.6861    0.0000 </r>
      </set>
      <set comment="kpoint 15">
       <r>   -5.6198    1.0000 </r>
       <r>    2.7719    1.0000 </r>
       <r>    4.1593    1.0000 </r>
       <r>    5.0400    1.0000 </r>
       <r>    8.1528    0.0000 </r>
       <r>    8.8175    0.0000 </r>
       <r>    9.5387    0.0000 </r>
       <r>   10.7625    0.0000 </r>
      </set>
      <set comment="kpoint 16">
       <r>   -4.8302    1.0000 </r>
       <r>    1.4467    1.0000 </r>
       <r>    3.4520    1.0000 </r>
       <r>    3.5731    1.0000 </r>
       <r>    6.7837    0.0000 </r>
       <r>    8.4353    0.0000 </r>
       <r>   11.5781    0.0000 </r>
       <r>   11.7207    0.0000 </r>
      </set>
      <set comment="kpoint 17">
       <r>   -4.0833    1.0000 </r>
       <r>    0.2170    1.0000 </r>
       <r>    2.6699    1.0000 </r>
       <r>    3.2285    1.0000 </r>
       <r>    7.0962    0.0000 </r>
       <r>    8.2745    0.0000 </r>
       <r>   11.5395    0.0000 </r>
       <r>   12.7086    0.0000 </r>
      </set>
      <set comment="kpoint 18">
       <r>   -3.1916    1.0000 </r>
       <r>   -0.9724    1.0000 </r>
       <r>    1.8348    1.0000 </r>
       <r>    3.1972    1.0000 </r>
       <r>    7.3297    0.0000 </r>
       <r>    9.9279    0.0000 </r>
       <r>   11.1158    0.0000 </r>
       <r>   12.6219    0.0000 </r>
      </set>
      <set comment="kpoint 19">
       <r>   -3.2626    1.0000 </r>
       <r>   -0.8790    1.0000 </r>
       <r>    1.4841    1.0000 </r>
       <r>    3.5393    1.0000 </r>
       <r>    7.7308    0.0000 </r>
       <r>   10.6574    0.0000 </r>
       <r>   11.9588    0.0000 </r>
       <r>   12.2425    0.0000 </r>
      </set>
      <set comment="kpoint 20">
       <r>   -4.1528    1.0000 </r>
       <r>    0.0683    1.0000 </r>
       <r>    2.0844    1.0000 </r>
       <r>    4.1208    1.0000 </r>
       <r>    8.3601    0.0000 </r>
       <r>    9.5584    0.0000 </r>
       <r>   10.9845    0.0000 </r>
       <r>   11.2543    0.0000 </r>
      </set>
      <set comment="kpoint 21">
       <r>   -4.8694    1.0000 </r>
       <r>    0.7030    1.0000 </r>
       <r>    3.7073    1.0000 </r>
       <r>    4.5707    1.0000 </r>
       <r>    8.0773    0.0000 </r>
       <r>    8.9312    0.0000 </r>
       <r>    9.7825    0.0000 </r>
       <r>   11.4587    0.0000 </r>
      </set>
      <set comment="kpoint 22">
       <r>   -3.4339    1.0000 </r>
       <r>   -0.6408    1.0000 </r>
       <r>    2.7678    1.0000 </r>
       <r>    2.9838    1.0000 </r>
       <r>    6.3906    0.0007 </r>
       <r>    7.0977    0.0000 </r>
       <r>   13.8651    0.0000 </r>
       <r>   13.8728    0.0000 </r>
      </set>
      <set comment="kpoint 23">
       <r>   -2.5298    1.0000 </r>
       <r>   -1.6242    1.0000 </r>
       <r>    2.2134    1.0000 </r>
       <r>    2.7416    1.0000 </r>
       <r>    6.8199    0.0000 </r>
       <r>    7.5460    0.0000 </r>
       <r>   13.6140    0.0000 </r>
       <r>   14.6316    0.0000 </r>
      </set>
      <set comment="kpoint 24">
       <r>   -2.6265    1.0000 </r>
       <r>   -1.4593    1.0000 </r>
       <r>    1.4883    1.0000 </r>
       <r>    3.0546    1.0000 </r>
       <r>    7.1832    0.0000 </r>
       <r>    9.7728    0.0000 </r>
       <r>   12.0941    0.0000 </r>
       <r>   13.2371    0.0000 </r>
      </set>
      <set comment="kpoint 25">
       <r>   -3.3787    1.0000 </r>
       <r>   -1.0529    1.0000 </r>
       <r>    2.0367    1.0000 </r>
       <r>    3.6520    1.0000 </r>
       <r>    7.8507    0.0000 </r>
       <r>    9.8088    0.0000 </r>
       <r>   11.3441    0.0000 </r>
       <r>   12.5774    0.0000 </r>
      </set>
      <set comment="kpoint 26">
       <r>   -3.9837    1.0000 </r>
       <r>   -0.9028    1.0000 </r>
       <r>    3.5336    1.0000 </r>
       <r>    4.2372    1.0000 </r>
       <r>    7.8772    0.0000 </r>
       <r>    8.8299    0.0000 </r>
       <r>    9.6040    0.0000 </r>
       <r>   13.1427    0.0000 </r>
      </set>
      <set comment="kpoint 27">
       <r>   -2.5808    1.0000 </r>
       <r>   -1.6416    1.0000 </r>
       <r>    2.6310    1.0000 </r>
       <r>    2.8634    1.0000 </r>
       <r>    6.3864    0.0008 </r>
       <r>    6.7448    0.0000 </r>
       <r>   14.9385    0.0000 </r>
       <r>   15.0102    0.0000 </r>
      </set>
      <set comment="kpoint 28">
       <r>   -3.3490    1.0000 </r>
       <r>   -0.7042    1.0000 </r>
       <r>    2.3698    1.0000 </r>
       <r>    2.9002    1.0000 </r>
       <r>    6.9076    0.0000 </r>
       <r>    7.7957    0.0000 </r>
       <r>   12.5484    0.0000 </r>
       <r>   13.8656    0.0000 </r>
      </set>
      <set comment="kpoint 29">
       <r>   -3.8173    1.0000 </r>
       <r>   -0.4436    1.0000 </r>
       <r>    2.4300    1.0000 </r>
       <r>    3.4956    1.0000 </r>
       <r>    7.6065    0.0000 </r>
       <r>   10.1118    0.0000 </r>
       <r>   10.3377    0.0000 </r>
       <r>   11.5550    0.0000 </r>
      </set>
      <set comment="kpoint 30">
       <r>   -4.1877    1.0000 </r>
       <r>    0.3986    1.0000 </r>
       <r>    3.0417    1.0000 </r>
       <r>    3.2222    1.0000 </r>
       <r>    6.5215    0.0000 </r>
       <r>    7.6726    0.0000 </r>
       <r>   12.7048    0.0000 </r>
       <r>   12.7815    0.0000 </r>
      </set>
      <set comment="kpoint 31">
       <r>   -4.7135    1.0000 </r>
       <r>    1.1040    1.0000 </r>
       <r>    3.0871    1.0000 </r>
       <r>    3.7348    1.0000 </r>
       <r>    7.3865    0.0000 </r>
       <r>    8.9493    0.0000 </r>
       <r>   10.5992    0.0000 </r>
       <r>   11.5829    0.0000 </r>
      </set>
      <set comment="kpoint 32">
       <r>   -5.3527    1.0000 </r>
       <r>    2.4717    1.0000 </r>
       <r>    3.9938    1.0000 </r>
       <r>    4.0255    1.0000 </r>
       <r>    7.1547    0.0000 </r>
       <r>    9.2970    0.0000 </r>
       <r>   10.5331    0.0000 </r>
       <r>   10.6956    0.0000 </r>
      </set>
      <set comment="kpoint 33">
       <r>   -5.7525    1.0000 </r>
       <r>    2.8648    1.0000 </r>
       <r>    5.0955    1.0000 </r>
       <r>    5.0955    1.0000 </r>
       <r>    7.8190    0.0000 </r>
       <r>    8.9098    0.0000 </r>
       <r>    8.9098    0.0000 </r>
       <r>   11.2696    0.0000 </r>
      </set>
      <set comment="kpoint 34">
       <r>   -5.3626    1.0000 </r>
       <r>    2.0285    1.0000 </r>
       <r>    3.5899    1.0000 </r>
       <r>    5.1140    1.0000 </r>
       <r>    8.4725    0.0000 </r>
       <r>    9.0317    0.0000 </r>
       <r>    9.3208    0.0000 </r>
       <r>   11.3208    0.0000 </r>
      </set>
      <set comment="kpoint 35">
       <r>   -4.6199    1.0000 </r>
       <r>    0.6663    1.0000 </r>
       <r>    2.5145    1.0000 </r>
       <r>    4.6120    1.0000 </r>
       <r>    8.3187    0.0000 </r>
       <r>    9.7847    0.0000 </r>
       <r>    9.9859    0.0000 </r>
       <r>   11.6045    0.0000 </r>
      </set>
      <set comment="kpoint 36">
       <r>   -3.7308    1.0000 </r>
       <r>   -0.8139    1.0000 </r>
       <r>    2.3630    1.0000 </r>
       <r>    4.0838    1.0000 </r>
       <r>    7.8195    0.0000 </r>
       <r>    9.9617    0.0000 </r>
       <r>   10.1707    0.0000 </r>
       <r>   13.4519    0.0000 </r>
      </set>
      <set comment="kpoint 37">
       <r>   -3.7154    1.0000 </r>
       <r>   -0.8420    1.0000 </r>
       <r>    2.6609    1.0000 </r>
       <r>    3.7675    1.0000 </r>
       <r>    7.5421    0.0000 </r>
       <r>   10.0351    0.0000 </r>
       <r>   10.5140    0.0000 </r>
       <r>   11.4986    0.0000 </r>
      </set>
      <set comment="kpoint 38">
       <r>   -4.6031    1.0000 </r>
       <r>    0.6628    1.0000 </r>
       <r>    3.2703    1.0000 </r>
       <r>    3.7435    1.0000 </r>
       <r>    7.4745    0.0000 </r>
       <r>    9.6607    0.0000 </r>
       <r>   10.3100    0.0000 </r>
       <r>   10.8872    0.0000 </r>
      </set>
      <set comment="kpoint 39">
       <r>   -5.1073    1.0000 </r>
       <r>    1.3662    1.0000 </r>
       <r>    4.0938    1.0000 </r>
       <r>    4.1595    1.0000 </r>
       <r>    7.8681    0.0000 </r>
       <r>    9.2417    0.0000 </r>
       <r>   10.1484    0.0000 </r>
       <r>   10.5104    0.0000 </r>
      </set>
      <set comment="kpoint 40">
       <r>   -4.4845    1.0000 </r>
       <r>    0.6003    1.0000 </r>
       <r>    2.5711    1.0000 </r>
       <r>    3.9650    1.0000 </r>
       <r>    8.3571    0.0000 </r>
       <r>    9.4017    0.0000 </r>
       <r>    9.8793    0.0000 </r>
       <r>   11.4027    0.0000 </r>
      </set>
      <set comment="kpoint 41">
       <r>   -3.5985    1.0000 </r>
       <r>   -0.4956    1.0000 </r>
       <r>    1.7855    1.0000 </r>
       <r>    3.3997    1.0000 </r>
       <r>    8.8089    0.0000 </r>
       <r>    9.2922    0.0000 </r>
       <r>   10.5690    0.0000 </r>
       <r>   12.4920    0.0000 </r>
      </set>
      <set comment="kpoint 42">
       <r>   -3.1138    1.0000 </r>
       <r>   -1.1059    1.0000 </r>
       <r>    1.7892    1.0000 </r>
       <r>    3.0885    1.0000 </r>
       <r>    8.3388    0.0000 </r>
       <r>    9.6205    0.0000 </r>
       <r>   11.3469    0.0000 </r>
       <r>   12.6413    0.0000 </r>
      </set>
      <set comment="kpoint 43">
       <r>   -3.8816    1.0000 </r>
       <r>   -0.1062    1.0000 </r>
       <r>    2.2093    1.0000 </r>
       <r>    3.2668    1.0000 </r>
       <r>    8.0707    0.0000 </r>
       <r>    9.2782    0.0000 </r>
       <r>   10.1547    0.0000 </r>
       <r>   12.6215    0.0000 </r>
      </set>
      <set comment="kpoint 44">
       <r>   -3.9904    1.0000 </r>
       <r>   -0.0495    1.0000 </r>
       <r>    2.5420    1.0000 </r>
       <r>    3.4147    1.0000 </r>
       <r>    7.0938    0.0000 </r>
       <r>    9.1154    0.0000 </r>
       <r>   11.3901    0.0000 </r>
       <r>   11.7060    0.0000 </r>
      </set>
      <set comment="kpoint 45">
       <r>   -3.1911    1.0000 </r>
       <r>   -0.8435    1.0000 </r>
       <r>    1.9669    1.0000 </r>
       <r>    2.7326    1.0000 </r>
       <r>    7.8661    0.0000 </r>
       <r>    8.8747    0.0000 </r>
       <r>   11.0413    0.0000 </r>
       <r>   13.8420    0.0000 </r>
      </set>
      <set comment="kpoint 46">
       <r>   -2.3875    1.0000 </r>
       <r>   -1.5947    1.0000 </r>
       <r>    1.6498    1.0000 </r>
       <r>    2.2333    1.0000 </r>
       <r>    8.9830    0.0000 </r>
       <r>    9.9047    0.0000 </r>
       <r>   10.5974    0.0000 </r>
       <r>   11.5945    0.0000 </r>
      </set>
      <set comment="kpoint 47">
       <r>   -2.9872    1.0000 </r>
       <r>   -1.0495    1.0000 </r>
       <r>    1.6422    1.0000 </r>
       <r>    2.7067    1.0000 </r>
       <r>    9.0793    0.0000 </r>
       <r>    9.5056    0.0000 </r>
       <r>   10.2742    0.0000 </r>
       <r>   12.7501    0.0000 </r>
      </set>
      <set comment="kpoint 48">
       <r>   -2.5502    1.0000 </r>
       <r>   -1.5743    1.0000 </r>
       <r>    1.7540    1.0000 </r>
       <r>    3.0744    1.0000 </r>
       <r>    6.6614    0.0000 </r>
       <r>    8.5585    0.0000 </r>
       <r>   13.5277    0.0000 </r>
       <r>   13.7368    0.0000 </r>
      </set>
      <set comment="kpoint 49">
       <r>   -2.4504    1.0000 </r>
       <r>   -1.6041    1.0000 </r>
       <r>    1.8474    1.0000 </r>
       <r>    2.4478    1.0000 </r>
       <r>    7.7609    0.0000 </r>
       <r>    8.6731    0.0000 </r>
       <r>   12.0391    0.0000 </r>
       <r>   13.1476    0.0000 </r>
      </set>
      <set comment="kpoint 50">
       <r>   -3.2880    1.0000 </r>
       <r>   -0.8061    1.0000 </r>
       <r>    2.0193    1.0000 </r>
       <r>    3.1890    1.0000 </r>
       <r>    6.8105    0.0000 </r>
       <r>    8.7421    0.0000 </r>
       <r>   12.5486    0.0000 </r>
       <r>   12.6074    0.0000 </r>
      </set>
      <set comment="kpoint 51">
       <r>   -5.0006    1.0000 </r>
       <r>    0.6724    1.0000 </r>
       <r>    4.6846    1.0000 </r>
       <r>    4.6846    1.0000 </r>
       <r>    7.3667    0.0000 </r>
       <r>    9.1386    0.0000 </r>
       <r>    9.1386    0.0000 </r>
       <r>   13.2500    0.0000 </r>
      </set>
      <set comment="kpoint 52">
       <r>   -4.5236    1.0000 </r>
       <r>    0.0977    1.0000 </r>
       <r>    3.2258    1.0000 </r>
       <r>    4.5977    1.0000 </r>
       <r>    8.0832    0.0000 </r>
       <r>    9.3606    0.0000 </r>
       <r>    9.4081    0.0000 </r>
       <r>   12.6136    0.0000 </r>
      </set>
      <set comment="kpoint 53">
       <r>   -3.7357    1.0000 </r>
       <r>   -0.4316    1.0000 </r>
       <r>    1.7058    1.0000 </r>
       <r>    4.0199    1.0000 </r>
       <r>    7.7432    0.0000 </r>
       <r>   10.8020    0.0000 </r>
       <r>   10.9718    0.0000 </r>
       <r>   12.3732    0.0000 </r>
      </set>
      <set comment="kpoint 54">
       <r>   -2.9188    1.0000 </r>
       <r>   -1.2092    1.0000 </r>
       <r>    1.3691    1.0000 </r>
       <r>    3.4762    1.0000 </r>
       <r>    7.1275    0.0000 </r>
       <r>   11.0033    0.0000 </r>
       <r>   12.0687    0.0000 </r>
       <r>   12.3450    0.0000 </r>
      </set>
      <set comment="kpoint 55">
       <r>   -4.2111    1.0000 </r>
       <r>   -0.4575    1.0000 </r>
       <r>    3.5606    1.0000 </r>
       <r>    4.0372    1.0000 </r>
       <r>    7.7934    0.0000 </r>
       <r>    9.1427    0.0000 </r>
       <r>    9.8878    0.0000 </r>
       <r>   11.9209    0.0000 </r>
      </set>
      <set comment="kpoint 56">
       <r>   -3.5946    1.0000 </r>
       <r>   -0.8149    1.0000 </r>
       <r>    2.2576    1.0000 </r>
       <r>    3.5637    1.0000 </r>
       <r>    8.5615    0.0000 </r>
       <r>    8.9061    0.0000 </r>
       <r>   11.4448    0.0000 </r>
       <r>   11.6606    0.0000 </r>
      </set>
      <set comment="kpoint 57">
       <r>   -2.7814    1.0000 </r>
       <r>   -1.2741    1.0000 </r>
       <r>    1.4607    1.0000 </r>
       <r>    2.8538    1.0000 </r>
       <r>    8.2103    0.0000 </r>
       <r>   10.4483    0.0000 </r>
       <r>   11.2396    0.0000 </r>
       <r>   11.7686    0.0000 </r>
      </set>
      <set comment="kpoint 58">
       <r>   -3.2380    1.0000 </r>
       <r>   -1.0927    1.0000 </r>
       <r>    1.8663    1.0000 </r>
       <r>    3.5755    1.0000 </r>
       <r>    7.2755    0.0000 </r>
       <r>   10.9639    0.0000 </r>
       <r>   11.2762    0.0000 </r>
       <r>   11.3807    0.0000 </r>
      </set>
      <set comment="kpoint 59">
       <r>   -4.1162    1.0000 </r>
       <r>   -0.9635    1.0000 </r>
       <r>    4.4650    1.0000 </r>
       <r>    4.4650    1.0000 </r>
       <r>    7.1147    0.0000 </r>
       <r>    8.9982    0.0000 </r>
       <r>    8.9982    0.0000 </r>
       <r>   13.3596    0.0000 </r>
      </set>
      <set comment="kpoint 60">
       <r>   -3.7673    1.0000 </r>
       <r>   -1.1381    1.0000 </r>
       <r>    3.2455    1.0000 </r>
       <r>    4.1983    1.0000 </r>
       <r>    7.8250    0.0000 </r>
       <r>    9.1323    0.0000 </r>
       <r>    9.5754    0.0000 </r>
       <r>   13.7521    0.0000 </r>
      </set>
     </set>
    </set>
   </array>
  </eigenvalues>
  <separator name="orbital magnetization" >
   <v name="MAGDIPOLOUT">      0.00000000      0.00000000      0.00000000</v>
  </separator>
  <dos>
   <i name="efermi">      5.93887918 </i>
   <total>
    <array>
     <dimension dim="1">gridpoints</dimension>
     <dimension dim="2">spin</dimension>
     <field>energy</field>
     <field>total</field>
     <field>integrated</field>
     <set>
      <set comment="spin 1">
       <r>    -8.1497     0.0000     0.0000 </r>
       <r>    -8.0658     0.0000     0.0000 </r>
       <r>    -7.9819     0.0000     0.0000 </r>
       <r>    -7.8981     0.0000     0.0000 </r>
       <r>    -7.8142     0.0000     0.0000 </r>
       <r>    -7.7304     0.0000     0.0000 </r>
       <r>    -7.6465     0.0000     0.0000 </r>
       <r>    -7.5626     0.0000     0.0000 </r>
       <r>    -7.4788     0.0000     0.0000 </r>
       <r>    -7.3949     0.0000     0.0000 </r>
       <r>    -7.3110     0.0000     0.0000 </r>
       <r>    -7.2272     0.0000     0.0000 </r>
       <r>    -7.1433     0.0000     0.0000 </r>
       <r>    -7.0594     0.0000     0.0000 </r>
       <r>    -6.9756     0.0000     0.0000 </r>
       <r>    -6.8917     0.0000     0.0000 </r>
       <r>    -6.8078     0.0000     0.0000 </r>
       <r>    -6.7240     0.0000     0.0000 </r>
       <r>    -6.6401     0.0000     0.0000 </r>
       <r>    -6.5562     0.0002     0.0000 </r>
       <r>    -6.4724     0.0010     0.0001 </r>
       <r>    -6.3885     0.0043     0.0005 </r>
       <r>    -6.3046     0.0134     0.0016 </r>
       <r>    -6.2208     0.0329     0.0043 </r>
       <r>    -6.1369     0.0643     0.0097 </r>
       <r>    -6.0530     0.1035     0.0184 </r>
       <r>    -5.9692     0.1425     0.0304 </r>
       <r>    -5.8853     0.1770     0.0452 </r>
       <r>    -5.8014     0.2093     0.0628 </r>
       <r>    -5.7176     0.2409     0.0830 </r>
       <r>    -5.6337     0.2654     0.1052 </r>
       <r>    -5.5498     0.2788     0.1286 </r>
       <r>    -5.4660     0.2920     0.1531 </r>
       <r>    -5.3821     0.3209     0.1800 </r>
       <r>    -5.2982     0.3600     0.2102 </r>
       <r>    -5.2144     0.3842     0.2424 </r>
       <r>    -5.1305     0.3843     0.2747 </r>
       <r>    -5.0466     0.3826     0.3067 </r>
       <r>    -4.9628     0.4010     0.3404 </r>
       <r>    -4.8789     0.4339     0.3768 </r>
       <r>    -4.7950     0.4672     0.4159 </r>
       <r>    -4.7112     0.4990     0.4578 </r>
       <r>    -4.6273     0.5284     0.5021 </r>
       <r>    -4.5434     0.5448     0.5478 </r>
       <r>    -4.4596     0.5401     0.5931 </r>
       <r>    -4.3757     0.5263     0.6372 </r>
       <r>    -4.2918     0.5384     0.6824 </r>
       <r>    -4.2080     0.6072     0.7333 </r>
       <r>    -4.1241     0.7128     0.7931 </r>
       <r>    -4.0402     0.7941     0.8597 </r>
       <r>    -3.9564     0.8214     0.9286 </r>
       <r>    -3.8725     0.8208     0.9974 </r>
       <r>    -3.7886     0.8236     1.0665 </r>
       <r>    -3.7048     0.8236     1.1356 </r>
       <r>    -3.6209     0.7936     1.2021 </r>
       <r>    -3.5370     0.7341     1.2637 </r>
       <r>    -3.4532     0.6985     1.3223 </r>
       <r>    -3.3693     0.7367     1.3840 </r>
       <r>    -3.2854     0.8166     1.4525 </r>
       <r>    -3.2016     0.8460     1.5235 </r>
       <r>    -3.1177     0.7711     1.5882 </r>
       <r>    -3.0338     0.6257     1.6406 </r>
       <r>    -2.9500     0.4842     1.6812 </r>
       <r>    -2.8661     0.3953     1.7144 </r>
       <r>    -2.7822     0.3731     1.7457 </r>
       <r>    -2.6984     0.4166     1.7806 </r>
       <r>    -2.6145     0.5028     1.8228 </r>
       <r>    -2.5306     0.5739     1.8709 </r>
       <r>    -2.4468     0.5645     1.9183 </r>
       <r>    -2.3629     0.4561     1.9565 </r>
       <r>    -2.2790     0.2941     1.9812 </r>
       <r>    -2.1952     0.1478     1.9936 </r>
       <r>    -2.1113     0.0570     1.9984 </r>
       <r>    -2.0274     0.0194     2.0000 </r>
       <r>    -1.9436     0.0208     2.0017 </r>
       <r>    -1.8597     0.0676     2.0074 </r>
       <r>    -1.7758     0.1865     2.0230 </r>
       <r>    -1.6920     0.3752     2.0545 </r>
       <r>    -1.6081     0.5543     2.1010 </r>
       <r>    -1.5242     0.6189     2.1529 </r>
       <r>    -1.4404     0.5651     2.2003 </r>
       <r>    -1.3565     0.5088     2.2430 </r>
       <r>    -1.2726     0.5658     2.2904 </r>
       <r>    -1.1888     0.7483     2.3532 </r>
       <r>    -1.1049     0.9711     2.4346 </r>
       <r>    -1.0210     1.1348     2.5298 </r>
       <r>    -0.9372     1.1987     2.6303 </r>
       <r>    -0.8533     1.1641     2.7279 </r>
       <r>    -0.7694     1.0340     2.8146 </r>
       <r>    -0.6856     0.8521     2.8861 </r>
       <r>    -0.6017     0.7186     2.9464 </r>
       <r>    -0.5178     0.6834     3.0037 </r>
       <r>    -0.4340     0.6700     3.0599 </r>
       <r>    -0.3501     0.5775     3.1083 </r>
       <r>    -0.2662     0.4279     3.1442 </r>
       <r>    -0.1824     0.3358     3.1724 </r>
       <r>    -0.0985     0.3634     3.2029 </r>
       <r>    -0.0146     0.4689     3.2422 </r>
       <r>     0.0692     0.5607     3.2892 </r>
       <r>     0.1531     0.5646     3.3366 </r>
       <r>     0.2370     0.4716     3.3761 </r>
       <r>     0.3208     0.3434     3.4049 </r>
       <r>     0.4047     0.2593     3.4267 </r>
       <r>     0.4886     0.2617     3.4486 </r>
       <r>     0.5724     0.3346     3.4767 </r>
       <r>     0.6563     0.4047     3.5106 </r>
       <r>     0.7402     0.3919     3.5435 </r>
       <r>     0.8240     0.2924     3.5680 </r>
       <r>     0.9079     0.1843     3.5835 </r>
       <r>     0.9918     0.1406     3.5952 </r>
       <r>     1.0756     0.1711     3.6096 </r>
       <r>     1.1595     0.2533     3.6308 </r>
       <r>     1.2434     0.3831     3.6630 </r>
       <r>     1.3272     0.5599     3.7099 </r>
       <r>     1.4111     0.7376     3.7718 </r>
       <r>     1.4950     0.8486     3.8430 </r>
       <r>     1.5788     0.8886     3.9175 </r>
       <r>     1.6627     0.9266     3.9952 </r>
       <r>     1.7466     1.0093     4.0798 </r>
       <r>     1.8304     1.1028     4.1723 </r>
       <r>     1.9143     1.1515     4.2689 </r>
       <r>     1.9982     1.1462     4.3650 </r>
       <r>     2.0820     1.1142     4.4585 </r>
       <r>     2.1659     1.0811     4.5491 </r>
       <r>     2.2497     1.0551     4.6376 </r>
       <r>     2.3336     1.0358     4.7245 </r>
       <r>     2.4175     1.0325     4.8111 </r>
       <r>     2.5013     1.0696     4.9008 </r>
       <r>     2.5852     1.1756     4.9994 </r>
       <r>     2.6691     1.3419     5.1119 </r>
       <r>     2.7529     1.4804     5.2361 </r>
       <r>     2.8368     1.4972     5.3616 </r>
       <r>     2.9207     1.4268     5.4813 </r>
       <r>     3.0045     1.3959     5.5984 </r>
       <r>     3.0884     1.4415     5.7193 </r>
       <r>     3.1723     1.4708     5.8426 </r>
       <r>     3.2561     1.4156     5.9613 </r>
       <r>     3.3400     1.3426     6.0739 </r>
       <r>     3.4239     1.3726     6.1890 </r>
       <r>     3.5077     1.5066     6.3154 </r>
       <r>     3.5916     1.5887     6.4486 </r>
       <r>     3.6755     1.4866     6.5733 </r>
       <r>     3.7593     1.2538     6.6785 </r>
       <r>     3.8432     1.0713     6.7683 </r>
       <r>     3.9271     1.0677     6.8578 </r>
       <r>     4.0109     1.2116     6.9595 </r>
       <r>     4.0948     1.3557     7.0732 </r>
       <r>     4.1787     1.3735     7.1883 </r>
       <r>     4.2625     1.2534     7.2935 </r>
       <r>     4.3464     1.0768     7.3838 </r>
       <r>     4.4303     0.9394     7.4626 </r>
       <r>     4.5141     0.8882     7.5370 </r>
       <r>     4.5980     0.8835     7.6111 </r>
       <r>     4.6819     0.8275     7.6805 </r>
       <r>     4.7657     0.6779     7.7374 </r>
       <r>     4.8496     0.5076     7.7800 </r>
       <r>     4.9335     0.4149     7.8148 </r>
       <r>     5.0173     0.4107     7.8492 </r>
       <r>     5.1012     0.4214     7.8845 </r>
       <r>     5.1851     0.3819     7.9166 </r>
       <r>     5.2689     0.2993     7.9417 </r>
       <r>     5.3528     0.2206     7.9602 </r>
       <r>     5.4367     0.1683     7.9743 </r>
       <r>     5.5205     0.1299     7.9852 </r>
       <r>     5.6044     0.0908     7.9928 </r>
       <r>     5.6883     0.0522     7.9972 </r>
       <r>     5.7721     0.0234     7.9991 </r>
       <r>     5.8560     0.0079     7.9998 </r>
       <r>     5.9399     0.0023     8.0000 </r>
       <r>     6.0237     0.0028     8.0002 </r>
       <r>     6.1076     0.0109     8.0011 </r>
       <r>     6.1915     0.0350     8.0041 </r>
       <r>     6.2753     0.0823     8.0110 </r>
       <r>     6.3592     0.1441     8.0231 </r>
       <r>     6.4431     0.1970     8.0396 </r>
       <r>     6.5269     0.2330     8.0591 </r>
       <r>     6.6108     0.2782     8.0825 </r>
       <r>     6.6947     0.3594     8.1126 </r>
       <r>     6.7785     0.4586     8.1511 </r>
       <r>     6.8624     0.5285     8.1954 </r>
       <r>     6.9463     0.5634     8.2426 </r>
       <r>     7.0301     0.6094     8.2937 </r>
       <r>     7.1140     0.6831     8.3510 </r>
       <r>     7.1979     0.7409     8.4132 </r>
       <r>     7.2817     0.7612     8.4770 </r>
       <r>     7.3656     0.7841     8.5428 </r>
       <r>     7.4495     0.8517     8.6142 </r>
       <r>     7.5333     0.9731     8.6958 </r>
       <r>     7.6172     1.1502     8.7923 </r>
       <r>     7.7011     1.3797     8.9080 </r>
       <r>     7.7849     1.6006     9.0422 </r>
       <r>     7.8688     1.6958     9.1844 </r>
       <r>     7.9527     1.6162     9.3200 </r>
       <r>     8.0365     1.4501     9.4416 </r>
       <r>     8.1204     1.3242     9.5527 </r>
       <r>     8.2043     1.2908     9.6609 </r>
       <r>     8.2881     1.3038     9.7703 </r>
       <r>     8.3720     1.2738     9.8771 </r>
       <r>     8.4559     1.1735     9.9755 </r>
       <r>     8.5397     1.0754    10.0657 </r>
       <r>     8.6236     1.0701    10.1554 </r>
       <r>     8.7075     1.2124    10.2571 </r>
       <r>     8.7913     1.5070    10.3835 </r>
       <r>     8.8752     1.8521    10.5388 </r>
       <r>     8.9591     2.0619    10.7118 </r>
       <r>     9.0429     2.0312    10.8821 </r>
       <r>     9.1268     1.8354    11.0360 </r>
       <r>     9.2107     1.6452    11.1740 </r>
       <r>     9.2945     1.5698    11.3057 </r>
       <r>     9.3784     1.5809    11.4382 </r>
       <r>     9.4623     1.5793    11.5707 </r>
       <r>     9.5461     1.5097    11.6973 </r>
       <r>     9.6300     1.3994    11.8147 </r>
       <r>     9.7139     1.3183    11.9252 </r>
       <r>     9.7977     1.3047    12.0346 </r>
       <r>     9.8816     1.3171    12.1451 </r>
       <r>     9.9655     1.2927    12.2535 </r>
       <r>    10.0493     1.2381    12.3573 </r>
       <r>    10.1332     1.2073    12.4586 </r>
       <r>    10.2171     1.2189    12.5608 </r>
       <r>    10.3009     1.2544    12.6660 </r>
       <r>    10.3848     1.3121    12.7761 </r>
       <r>    10.4687     1.4049    12.8939 </r>
       <r>    10.5525     1.4959    13.0193 </r>
       <r>    10.6364     1.4917    13.1444 </r>
       <r>    10.7203     1.3470    13.2574 </r>
       <r>    10.8041     1.1312    13.3523 </r>
       <r>    10.8880     0.9552    13.4324 </r>
       <r>    10.9719     0.8662    13.5050 </r>
       <r>    11.0557     0.8434    13.5758 </r>
       <r>    11.1396     0.8803    13.6496 </r>
       <r>    11.2235     1.0112    13.7344 </r>
       <r>    11.3073     1.2266    13.8373 </r>
       <r>    11.3912     1.4325    13.9574 </r>
       <r>    11.4751     1.5323    14.0859 </r>
       <r>    11.5589     1.4914    14.2110 </r>
       <r>    11.6428     1.3167    14.3214 </r>
       <r>    11.7267     1.0534    14.4098 </r>
       <r>    11.8105     0.8020    14.4771 </r>
       <r>    11.8944     0.6699    14.5332 </r>
       <r>    11.9782     0.6783    14.5901 </r>
       <r>    12.0621     0.7373    14.6520 </r>
       <r>    12.1460     0.7361    14.7137 </r>
       <r>    12.2298     0.6596    14.7690 </r>
       <r>    12.3137     0.5981    14.8192 </r>
       <r>    12.3976     0.6602    14.8745 </r>
       <r>    12.4814     0.8787    14.9482 </r>
       <r>    12.5653     1.1575    15.0453 </r>
       <r>    12.6492     1.3135    15.1555 </r>
       <r>    12.7330     1.2265    15.2583 </r>
       <r>    12.8169     0.9419    15.3373 </r>
       <r>    12.9008     0.6174    15.3891 </r>
       <r>    12.9846     0.4029    15.4229 </r>
       <r>    13.0685     0.3541    15.4526 </r>
       <r>    13.1524     0.4100    15.4870 </r>
       <r>    13.2362     0.4622    15.5258 </r>
       <r>    13.3201     0.4626    15.5646 </r>
       <r>    13.4040     0.4419    15.6016 </r>
       <r>    13.4878     0.4346    15.6381 </r>
       <r>    13.5717     0.4429    15.6752 </r>
       <r>    13.6556     0.4686    15.7145 </r>
       <r>    13.7394     0.5174    15.7579 </r>
       <r>    13.8233     0.5558    15.8045 </r>
       <r>    13.9072     0.5157    15.8478 </r>
       <r>    13.9910     0.3772    15.8794 </r>
       <r>    14.0749     0.2070    15.8968 </r>
       <r>    14.1588     0.0833    15.9038 </r>
       <r>    14.2426     0.0256    15.9059 </r>
       <r>    14.3265     0.0120    15.9069 </r>
       <r>    14.4104     0.0250    15.9090 </r>
       <r>    14.4942     0.0601    15.9140 </r>
       <r>    14.5781     0.1061    15.9229 </r>
       <r>    14.6620     0.1371    15.9344 </r>
       <r>    14.7458     0.1386    15.9461 </r>
       <r>    14.8297     0.1292    15.9569 </r>
       <r>    14.9136     0.1315    15.9679 </r>
       <r>    14.9974     0.1355    15.9793 </r>
       <r>    15.0813     0.1170    15.9891 </r>
       <r>    15.1652     0.0766    15.9955 </r>
       <r>    15.2490     0.0368    15.9986 </r>
       <r>    15.3329     0.0128    15.9997 </r>
       <r>    15.4168     0.0032    15.9999 </r>
       <r>    15.5006     0.0006    16.0000 </r>
       <r>    15.5845     0.0001    16.0000 </r>
       <r>    15.6684     0.0000    16.0000 </r>
       <r>    15.7522     0.0000    16.0000 </r>
       <r>    15.8361     0.0000    16.0000 </r>
       <r>    15.9200     0.0000    16.0000 </r>
       <r>    16.0038     0.0000    16.0000 </r>
       <r>    16.0877     0.0000    16.0000 </r>
       <r>    16.1716     0.0000    16.0000 </r>
       <r>    16.2554     0.0000    16.0000 </r>
       <r>    16.3393     0.0000    16.0000 </r>
       <r>    16.4232     0.0000    16.0000 </r>
       <r>    16.5070     0.0000    16.0000 </r>
       <r>    16.5909     0.0000    16.0000 </r>
       <r>    16.6748     0.0000    16.0000 </r>
       <r>    16.7586     0.0000    16.0000 </r>
       <r>    16.8425     0.0000    16.0000 </r>
       <r>    16.9264     0.0000    16.0000 </r>
       <r>    17.0102     0.0000    16.0000 </r>
      </set>
     </set>
    </array>
   </total>
  </dos>
 </calculation>
 <structure name="finalpos" >
  <crystal>
   <varray name="basis" >
    <v>       0.00000000       2.73429900       2.73429900 </v>
    <v>       2.73429900       0.00000000       2.73429900 </v>
    <v>       2.73429900       2.73429900       0.00000000 </v>
   </varray>
   <i name="volume">     40.88537699 </i>
   <varray name="rec_basis" >
    <v>      -0.18286223       0.18286223       0.18286223 </v>
    <v>       0.18286223      -0.18286223       0.18286223 </v>
    <v>       0.18286223       0.18286223      -0.18286223 </v>
   </varray>
  </crystal>
  <varray name="positions" >
   <v>       0.00000000       0.00000000       0.00000000 </v>
   <v>       0.25000000       0.25000000       0.25000000 </v>
  </varray>
 </structure>
</modeling>
