    2    2   15    1
  0.2001288E+02  0.3839590E-09  0.3839590E-09  0.3839590E-09  0.5000000E-15
  1.000000000000000E-004
  CAR 
 unknown system                          
      8     10      8
 
  0.1250000E+00  0.1250000E+00  0.1250000E+00  0.3125000E-01
    1       -5.992344   1.000000
    2        4.048312   1.000000
    3        5.359776   0.999990
    4        5.359776   0.999990
    5        8.091839   0.000000
    6        8.621475   0.000000
    7        8.621475   0.000000
    8       10.185717   0.000000
 
  0.3750000E+00  0.1250000E+00  0.1250000E+00  0.9375000E-01
    1       -4.964651   1.000000
    2        1.050907   1.000000
    3        3.367318   1.000000
    4        4.876789   1.000000
    5        8.307886   0.000000
    6        9.311251   0.000000
    7        9.492477   0.000000
    8       11.869899   0.000000
 
 -0.3750000E+00  0.1250000E+00  0.1250000E+00  0.9375000E-01
    1       -3.823408   1.000000
    2       -1.031362   1.000000
    3        3.388464   1.000000
    4        4.102656   1.000000
    5        7.814490   0.000000
    6        9.143933   0.000000
    7        9.749653   0.000000
    8       12.969044   0.000000
 
 -0.1250000E+00  0.1250000E+00  0.1250000E+00  0.9375000E-01
    1       -5.463998   1.000000
    2        2.429943   1.000000
    3        4.347361   1.000000
    4        4.412411   1.000000
    5        7.792234   0.000000
    6        9.275562   0.000000
    7       10.082637   0.000000
    8       10.399175   0.000000
 
  0.3750000E+00  0.3750000E+00  0.1250000E+00  0.9375000E-01
    1       -4.431513   1.000000
    2        0.718463   1.000000
    3        3.017404   1.000000
    4        3.471019   1.000000
    5        7.018398   0.000000
    6        8.558025   0.000000
    7       11.571921   0.000000
    8       11.872867   0.000000
 
 -0.3750000E+00  0.3750000E+00  0.1250000E+00  0.1875000E+00
    1       -2.789479   1.000000
    2       -1.246428   1.000000
    3        1.659873   1.000000
    4        2.738430   1.000000
    5        8.046602   0.000000
    6        9.927757   0.000000
    7       10.870308   0.000000
    8       13.017159   0.000000
 
 -0.1250000E+00  0.3750000E+00  0.1250000E+00  0.1875000E+00
    1       -4.015413   1.000000
    2       -0.157527   1.000000
    3        2.374571   1.000000
    4        3.745885   1.000000
    5        8.516628   0.000000
    6        9.184586   0.000000
    7       10.636229   0.000000
    8       11.545919   0.000000
 
 -0.3750000E+00 -0.3750000E+00  0.1250000E+00  0.9375000E-01
    1       -2.957491   1.000000
    2       -1.148750   1.000000
    3        2.270676   1.000000
    4        3.002788   1.000000
    5        6.579920   0.000007
    6        7.636162   0.000000
    7       13.845185   0.000000
    8       13.902122   0.000000
 
  0.3750000E+00  0.3750000E+00  0.3750000E+00  0.3125000E-01
    1       -4.531212   1.000000
    2       -0.242399   1.000000
    3        4.569035   1.000000
    4        4.569035   1.000000
    5        7.246985   0.000000
    6        9.107452   0.000000
    7        9.107452   0.000000
    8       13.483767   0.000000
 
 -0.3750000E+00  0.3750000E+00  0.3750000E+00  0.9375000E-01
    1       -3.327147   1.000000
    2       -0.944690   1.000000
    3        1.718819   1.000000
    4        3.784649   1.000000
    5        7.507108   0.000000
    6       11.066199   0.000000
    7       11.101852   0.000000
    8       12.547373   0.000000
