<?xml version="1.0" encoding="ISO-8859-1"?>
<modeling>
 <generator>
  <i name="program" type="string">vasp </i>
  <i name="version" type="string">5.4.4.18Apr17-6-g9f103f2a35  </i>
  <i name="subversion" type="string">(build Dec 09 2018 21:25:21) complex            parallel </i>
  <i name="platform" type="string">IFC18.0.1.163_CrayMPICH7.7.0_MKL18.0.1.163 </i>
  <i name="date" type="string">2019 03 20 </i>
  <i name="time" type="string">09:52:37 </i>
 </generator>
 <incar>
  <i type="string" name="PREC">normal</i>
  <i type="int" name="IBRION">     2</i>
  <i name="EDIFF">      0.00040000</i>
  <i name="EDIFFG">     -0.01000000</i>
  <i type="int" name="NSW">    15</i>
  <i type="int" name="ISIF">     3</i>
  <i name="ENCUT">    250.00000000</i>
  <i type="int" name="NBANDS">     8</i>
  <i type="logical" name="LREAL"> F  </i>
  <i type="int" name="ISMEAR">     0</i>
  <i name="SIGMA">      0.20000000</i>
  <v type="int" name="KPOINT_BSE">    -1     0     0     0</v>
 </incar>
 <structure name="primitive_cell" >
  <crystal>
   <varray name="basis" >
    <v>       0.00000000       2.71500000       2.71500000 </v>
    <v>       2.71500000       0.00000000       2.71500000 </v>
    <v>       2.71500000       2.71500000       0.00000000 </v>
   </varray>
   <i name="volume">     40.02575175 </i>
   <varray name="rec_basis" >
    <v>      -0.18416206       0.18416206       0.18416206 </v>
    <v>       0.18416206      -0.18416206       0.18416206 </v>
    <v>       0.18416206       0.18416206      -0.18416206 </v>
   </varray>
  </crystal>
  <varray name="positions" >
   <v>      -0.50000000      -0.50000000      -0.50000000 </v>
   <v>      -0.25000000      -0.25000000      -0.25000000 </v>
  </varray>
 </structure>
 <varray name="primitive_index" >
  <v type="int" >        1 </v>
  <v type="int" >        2 </v>
 </varray>
 <kpoints>
  <generation param="Monkhorst-Pack">
   <v type="int" name="divisions">       4        4        4 </v>
   <v name="usershift">      0.00000000       0.00000000       0.00000000 </v>
   <v name="genvec1">      0.25000000       0.00000000      -0.00000000 </v>
   <v name="genvec2">      0.00000000       0.25000000       0.00000000 </v>
   <v name="genvec3">     -0.00000000      -0.00000000       0.25000000 </v>
   <v name="shift">      0.50000000       0.50000000       0.50000000 </v>
  </generation>
  <varray name="kpointlist" >
   <v>       0.12500000       0.12500000       0.12500000 </v>
   <v>       0.37500000       0.12500000       0.12500000 </v>
   <v>      -0.37500000       0.12500000       0.12500000 </v>
   <v>      -0.12500000       0.12500000       0.12500000 </v>
   <v>       0.37500000       0.37500000       0.12500000 </v>
   <v>      -0.37500000       0.37500000       0.12500000 </v>
   <v>      -0.12500000       0.37500000       0.12500000 </v>
   <v>      -0.37500000      -0.37500000       0.12500000 </v>
   <v>       0.37500000       0.37500000       0.37500000 </v>
   <v>      -0.37500000       0.37500000       0.37500000 </v>
  </varray>
  <varray name="weights" >
   <v>       0.03125000 </v>
   <v>       0.09375000 </v>
   <v>       0.09375000 </v>
   <v>       0.09375000 </v>
   <v>       0.09375000 </v>
   <v>       0.18750000 </v>
   <v>       0.18750000 </v>
   <v>       0.09375000 </v>
   <v>       0.03125000 </v>
   <v>       0.09375000 </v>
  </varray>
 </kpoints>
 <parameters>
  <separator name="general" >
   <i type="string" name="SYSTEM">unknown system</i>
   <i type="logical" name="LCOMPAT"> F  </i>
  </separator>
  <separator name="electronic" >
   <i type="string" name="PREC">normal</i>
   <i name="ENMAX">    250.00000000</i>
   <i name="ENAUG">    322.06900000</i>
   <i name="EDIFF">      0.00040000</i>
   <i type="int" name="IALGO">    38</i>
   <i type="int" name="IWAVPR">    11</i>
   <i type="int" name="NBANDS">     8</i>
   <i name="NELECT">      8.00000000</i>
   <i type="int" name="TURBO">     0</i>
   <i type="int" name="IRESTART">     0</i>
   <i type="int" name="NREBOOT">     0</i>
   <i type="int" name="NMIN">     0</i>
   <i name="EREF">      0.00000000</i>
   <separator name="electronic smearing" >
    <i type="int" name="ISMEAR">     0</i>
    <i name="SIGMA">      0.20000000</i>
    <i name="KSPACING">      0.50000000</i>
    <i type="logical" name="KGAMMA"> T  </i>
   </separator>
   <separator name="electronic projectors" >
    <i type="logical" name="LREAL"> F  </i>
    <v name="ROPT">      0.00000000</v>
    <i type="int" name="LMAXPAW">  -100</i>
    <i type="int" name="LMAXMIX">     2</i>
    <i type="logical" name="NLSPLINE"> F  </i>
   </separator>
   <separator name="electronic startup" >
    <i type="int" name="ISTART">     0</i>
    <i type="int" name="ICHARG">     2</i>
    <i type="int" name="INIWAV">     1</i>
   </separator>
   <separator name="electronic spin" >
    <i type="int" name="ISPIN">     1</i>
    <i type="logical" name="LNONCOLLINEAR"> F  </i>
    <v name="MAGMOM">      1.00000000      1.00000000</v>
    <i name="NUPDOWN">     -1.00000000</i>
    <i type="logical" name="LSORBIT"> F  </i>
    <v name="SAXIS">      0.00000000      0.00000000      1.00000000</v>
    <i type="logical" name="LSPIRAL"> F  </i>
    <v name="QSPIRAL">      0.00000000      0.00000000      0.00000000</v>
    <i type="logical" name="LZEROZ"> F  </i>
   </separator>
   <separator name="electronic exchange-correlation" >
    <i type="logical" name="LASPH"> F  </i>
    <i type="logical" name="LMETAGGA"> F  </i>
   </separator>
   <separator name="electronic convergence" >
    <i type="int" name="NELM">    60</i>
    <i type="int" name="NELMDL">    -5</i>
    <i type="int" name="NELMIN">     2</i>
    <i name="ENINI">    250.00000000</i>
    <separator name="electronic convergence detail" >
     <i type="logical" name="LDIAG"> T  </i>
     <i type="logical" name="LSUBROT"> F  </i>
     <i name="WEIMIN">      0.00100000</i>
     <i name="EBREAK">      0.00001250</i>
     <i name="DEPER">      0.30000000</i>
     <i type="int" name="NRMM">     4</i>
     <i name="TIME">      0.40000000</i>
    </separator>
   </separator>
   <separator name="electronic mixer" >
    <i name="AMIX">      0.40000000</i>
    <i name="BMIX">      1.00000000</i>
    <i name="AMIN">      0.10000000</i>
    <i name="AMIX_MAG">      1.60000000</i>
    <i name="BMIX_MAG">      1.00000000</i>
    <separator name="electronic mixer details" >
     <i type="int" name="IMIX">     4</i>
     <i type="logical" name="MIXFIRST"> F  </i>
     <i type="int" name="MAXMIX">   -45</i>
     <i name="WC">    100.00000000</i>
     <i type="int" name="INIMIX">     1</i>
     <i type="int" name="MIXPRE">     1</i>
     <i type="int" name="MREMOVE">     5</i>
    </separator>
   </separator>
   <separator name="electronic dipolcorrection" >
    <i type="logical" name="LDIPOL"> F  </i>
    <i type="logical" name="LMONO"> F  </i>
    <i type="int" name="IDIPOL">     0</i>
    <i name="EPSILON">      1.00000000</i>
    <v name="DIPOL">   -100.00000000   -100.00000000   -100.00000000</v>
    <i name="EFIELD">      0.00000000</i>
   </separator>
  </separator>
  <separator name="grids" >
   <i type="int" name="NGX">    16</i>
   <i type="int" name="NGY">    16</i>
   <i type="int" name="NGZ">    16</i>
   <i type="int" name="NGXF">    32</i>
   <i type="int" name="NGYF">    32</i>
   <i type="int" name="NGZF">    32</i>
   <i type="logical" name="ADDGRID"> F  </i>
  </separator>
  <separator name="ionic" >
   <i type="int" name="NSW">    15</i>
   <i type="int" name="IBRION">     2</i>
   <i type="int" name="MDALGO">     0</i>
   <i type="int" name="ISIF">     3</i>
   <i name="PSTRESS">      0.00000000</i>
   <i name="EDIFFG">     -0.01000000</i>
   <i type="int" name="NFREE">     1</i>
   <i name="POTIM">      0.50000000</i>
   <i name="SMASS">     -3.00000000</i>
   <i name="SCALEE">      1.00000000</i>
  </separator>
  <separator name="ionic md" >
   <i name="TEBEG">      0.00010000</i>
   <i name="TEEND">      0.00010000</i>
   <i type="int" name="NBLOCK">     1</i>
   <i type="int" name="KBLOCK">    15</i>
   <i type="int" name="NPACO">   256</i>
   <i name="APACO">     16.00000000</i>
  </separator>
  <separator name="symmetry" >
   <i type="int" name="ISYM">     2</i>
   <i name="SYMPREC">      0.00001000</i>
  </separator>
  <separator name="dos" >
   <i type="int" name="LORBIT">     0</i>
   <v name="RWIGS">     -1.00000000</v>
   <i type="int" name="NEDOS">   301</i>
   <i name="EMIN">     10.00000000</i>
   <i name="EMAX">    -10.00000000</i>
   <i name="EFERMI">      0.00000000</i>
  </separator>
  <separator name="writing" >
   <i type="int" name="NWRITE">     2</i>
   <i type="logical" name="LWAVE"> T  </i>
   <i type="logical" name="LDOWNSAMPLE"> F  </i>
   <i type="logical" name="LCHARG"> T  </i>
   <i type="logical" name="LPARD"> F  </i>
   <i type="logical" name="LVTOT"> F  </i>
   <i type="logical" name="LVHAR"> F  </i>
   <i type="logical" name="LELF"> F  </i>
   <i type="logical" name="LOPTICS"> F  </i>
   <v name="STM">      0.00000000      0.00000000      0.00000000      0.00000000      0.00000000      0.00000000      0.00000000</v>
  </separator>
  <separator name="performance" >
   <i type="int" name="NPAR">     8</i>
   <i type="int" name="NSIM">     4</i>
   <i type="int" name="NBLK">    -1</i>
   <i type="logical" name="LPLANE"> T  </i>
   <i type="logical" name="LSCALAPACK"> T  </i>
   <i type="logical" name="LSCAAWARE"> F  </i>
   <i type="logical" name="LSCALU"> F  </i>
   <i type="logical" name="LASYNC"> F  </i>
   <i type="logical" name="LORBITALREAL"> F  </i>
  </separator>
  <separator name="miscellaneous" >
   <i type="int" name="IDIOT">     3</i>
   <i type="int" name="ISPECIAL">     0</i>
   <i type="logical" name="LMUSIC"> F  </i>
   <v name="POMASS">     28.08500000</v>
   <v name="DARWINR">      0.00000000</v>
   <v name="DARWINV">      1.00000000</v>
   <i type="logical" name="LCORR"> T  </i>
  </separator>
  <i type="logical" name="GGA_COMPAT"> T  </i>
  <i type="logical" name="LBERRY"> F  </i>
  <i type="int" name="ICORELEVEL">     0</i>
  <i type="logical" name="LDAU"> F  </i>
  <i type="int" name="I_CONSTRAINED_M">     0</i>
  <separator name="electronic exchange-correlation" >
   <i type="string" name="GGA">--</i>
   <i type="int" name="VOSKOWN">     0</i>
   <i type="logical" name="LHFCALC"> F  </i>
   <i type="string" name="PRECFOCK"></i>
   <i type="logical" name="LSYMGRAD"> F  </i>
   <i type="logical" name="LHFONE"> F  </i>
   <i type="logical" name="LRHFCALC"> F  </i>
   <i type="logical" name="LTHOMAS"> F  </i>
   <i type="logical" name="LMODELHF"> F  </i>
   <i name="ENCUT4O">     -1.00000000</i>
   <i type="int" name="EXXOEP">     0</i>
   <i type="int" name="FOURORBIT">     0</i>
   <i name="AEXX">      0.00000000</i>
   <i name="HFALPHA">      0.00000000</i>
   <i name="MCALPHA">      0.00000000</i>
   <i name="ALDAX">      1.00000000</i>
   <i name="AGGAX">      1.00000000</i>
   <i name="ALDAC">      1.00000000</i>
   <i name="AGGAC">      1.00000000</i>
   <i type="int" name="NKREDX">     1</i>
   <i type="int" name="NKREDY">     1</i>
   <i type="int" name="NKREDZ">     1</i>
   <i type="logical" name="SHIFTRED"> F  </i>
   <i type="logical" name="ODDONLY"> F  </i>
   <i type="logical" name="EVENONLY"> F  </i>
   <i type="int" name="LMAXFOCK">     0</i>
   <i type="int" name="NMAXFOCKAE">     0</i>
   <i type="logical" name="LFOCKAEDFT"> F  </i>
   <i name="HFSCREEN">      0.00000000</i>
   <i name="HFSCREENC">      0.00000000</i>
   <i type="int" name="NBANDSGWLOW">     0</i>
  </separator>
  <separator name="vdW DFT" >
   <i type="logical" name="LUSE_VDW"> F  </i>
   <i name="Zab_VDW">     -0.84910000</i>
   <i name="PARAM1">      0.12340000</i>
   <i name="PARAM2">      1.00000000</i>
   <i name="PARAM3">      0.00000000</i>
  </separator>
  <separator name="model GW" >
   <i type="int" name="MODEL_GW">     0</i>
   <i name="MODEL_EPS0">     12.00772552</i>
   <i name="MODEL_ALPHA">      1.00000000</i>
  </separator>
  <separator name="linear response parameters" >
   <i type="logical" name="LEPSILON"> F  </i>
   <i type="logical" name="LRPA"> F  </i>
   <i type="logical" name="LNABLA"> F  </i>
   <i type="logical" name="LVEL"> F  </i>
   <i type="int" name="KINTER">     0</i>
   <i name="CSHIFT">      0.10000000</i>
   <i name="OMEGAMAX">     -1.00000000</i>
   <i name="DEG_THRESHOLD">      0.00200000</i>
   <i name="RTIME">     -0.10000000</i>
   <i name="WPLASMAI">      0.00000000</i>
   <v name="DFIELD">      0.00000000      0.00000000      0.00000000</v>
   <v name="WPLASMA">      0.00000000      0.00000000      0.00000000      0.00000000      0.00000000      0.00000000      0.00000000      0.00000000      0.00000000</v>
  </separator>
  <separator name="orbital magnetization" >
   <i type="logical" name="NUCIND"> F  </i>
   <v name="MAGPOS">      0.00000000      0.00000000      0.00000000</v>
   <i type="logical" name="LNICSALL"> T  </i>
   <i type="logical" name="ORBITALMAG"> F  </i>
   <i type="logical" name="LMAGBLOCH"> F  </i>
   <i type="logical" name="LCHIMAG"> F  </i>
   <i type="logical" name="LGAUGE"> T  </i>
   <i type="int" name="MAGATOM">     0</i>
   <v name="MAGDIPOL">      0.00000000      0.00000000      0.00000000</v>
   <v name="AVECCONST">      0.00000000      0.00000000      0.00000000</v>
  </separator>
  <separator name="response functions" >
   <i type="logical" name="LADDER"> F  </i>
   <i type="logical" name="LRPAFORCE"> F  </i>
   <i type="logical" name="LFXC"> F  </i>
   <i type="logical" name="LHARTREE"> T  </i>
   <i type="int" name="IBSE">     0</i>
   <v type="int" name="KPOINT">    -1     0     0     0</v>
   <i type="logical" name="LTCTE"> F  </i>
   <i type="logical" name="LTETE"> F  </i>
   <i type="logical" name="LTRIPLET"> F  </i>
   <i type="logical" name="LFXCEPS"> F  </i>
   <i type="logical" name="LFXHEG"> F  </i>
   <i type="int" name="NATURALO">     2</i>
   <i type="logical" name="L2ORDER"> F  </i>
   <i type="logical" name="LMP2LT"> F  </i>
   <i type="logical" name="LUSEW"> F  </i>
   <i name="ENCUTGW">     -2.00000000</i>
   <i name="ENCUTGWSOFT">     -2.00000000</i>
   <i name="ENCUTLF">     -1.00000000</i>
   <i type="int" name="LMAXMP2">    -1</i>
   <i name="SCISSOR">      0.00000000</i>
   <i type="int" name="NOMEGA">     0</i>
   <i type="int" name="NOMEGAR">     0</i>
   <i type="int" name="NBANDSGW">    -1</i>
   <i type="int" name="NBANDSO">    -1</i>
   <i type="int" name="NBANDSV">    -1</i>
   <i type="int" name="NELM">     1</i>
   <i type="int" name="NELMHF">     1</i>
   <i type="int" name="DIM">     3</i>
   <i type="int" name="ANTIRES">     0</i>
   <i name="OMEGAMAX">    -30.00000000</i>
   <i name="OMEGAMIN">    -30.00000000</i>
   <i name="OMEGATL">   -200.00000000</i>
   <i type="int" name="OMEGAGRID">   140</i>
   <i name="CSHIFT">     -0.10000000</i>
   <i type="logical" name="SELFENERGY"> F  </i>
   <i type="logical" name="LSPECTRAL"> F  </i>
   <i type="logical" name="LSPECTRALGW"> F  </i>
   <i type="logical" name="LSINGLES"> F  </i>
   <i type="logical" name="LFERMIGW"> F  </i>
   <i type="logical" name="ODDONLYGW"> F  </i>
   <i type="logical" name="EVENONLYGW"> F  </i>
   <i type="int" name="NKREDLFX">     1</i>
   <i type="int" name="NKREDLFY">     1</i>
   <i type="int" name="NKREDLFZ">     1</i>
   <i type="int" name="MAXMEM">  2800</i>
   <i type="int" name="TELESCOPE">     0</i>
   <i type="int" name="TAUPAR">     1</i>
   <i type="int" name="OMEGAPAR">    -1</i>
   <i name="LAMBDA">      1.00000000</i>
  </separator>
  <separator name="External order field" >
   <i name="OFIELD_KAPPA">      0.00000000</i>
   <v name="OFIELD_K">      0.00000000      0.00000000      0.00000000</v>
   <i name="OFIELD_Q6_NEAR">      0.00000000</i>
   <i name="OFIELD_Q6_FAR">      0.00000000</i>
   <i name="OFIELD_A">      0.00000000</i>
  </separator>
 </parameters>
 <atominfo>
  <atoms>       2 </atoms>
  <types>       1 </types>
  <array name="atoms" >
   <dimension dim="1">ion</dimension>
   <field type="string">element</field>
   <field type="int">atomtype</field>
   <set>
    <rc><c>Si</c><c>   1</c></rc>
    <rc><c>Si</c><c>   1</c></rc>
   </set>
  </array>
  <array name="atomtypes" >
   <dimension dim="1">type</dimension>
   <field type="int">atomspertype</field>
   <field type="string">element</field>
   <field>mass</field>
   <field>valence</field>
   <field type="string">pseudopotential</field>
   <set>
    <rc><c>   2</c><c>Si</c><c>     28.08500000</c><c>      4.00000000</c><c> PAW_PBE Si 05Jan2001                   </c></rc>
   </set>
  </array>
 </atominfo>
 <structure name="initialpos" >
  <crystal>
   <varray name="basis" >
    <v>       0.00000000       2.71500000       2.71500000 </v>
    <v>       2.71500000       0.00000000       2.71500000 </v>
    <v>       2.71500000       2.71500000       0.00000000 </v>
   </varray>
   <i name="volume">     40.02575175 </i>
   <varray name="rec_basis" >
    <v>      -0.18416206       0.18416206       0.18416206 </v>
    <v>       0.18416206      -0.18416206       0.18416206 </v>
    <v>       0.18416206       0.18416206      -0.18416206 </v>
   </varray>
  </crystal>
  <varray name="positions" >
   <v>       0.50000000       0.50000000       0.50000000 </v>
   <v>       0.75000000       0.75000000       0.75000000 </v>
  </varray>
 </structure>
 <calculation>
  <scstep>
   <time name="dav">    0.09    0.10</time>
   <time name="total">    0.13    0.15</time>
   <energy>
    <i name="alphaZ">      3.36414203 </i>
    <i name="ewald">   -228.56352493 </i>
    <i name="hartreedc">    -11.00108243 </i>
    <i name="XCdc">    -18.60181216 </i>
    <i name="pawpsdc">     65.95520812 </i>
    <i name="pawaedc">    -30.76852678 </i>
    <i name="eentropy">     -0.01526582 </i>
    <i name="bandstr">     14.49007705 </i>
    <i name="atom">    206.12349923 </i>
    <i name="e_fr_energy">      0.98271429 </i>
    <i name="e_wo_entrp">      0.99798011 </i>
    <i name="e_0_energy">      0.99034720 </i>
   </energy>
  </scstep>
  <scstep>
   <time name="dav">    0.15    0.16</time>
   <time name="total">    0.15    0.16</time>
   <energy>
    <i name="e_fr_energy">    -10.89266221 </i>
    <i name="e_wo_entrp">    -10.89266219 </i>
    <i name="e_0_energy">    -10.89266220 </i>
   </energy>
  </scstep>
  <scstep>
   <time name="dav">    0.10    0.11</time>
   <time name="total">    0.10    0.11</time>
   <energy>
    <i name="e_fr_energy">    -11.00042097 </i>
    <i name="e_wo_entrp">    -11.00042095 </i>
    <i name="e_0_energy">    -11.00042096 </i>
   </energy>
  </scstep>
  <scstep>
   <time name="dav">    0.15    0.16</time>
   <time name="total">    0.15    0.16</time>
   <energy>
    <i name="e_fr_energy">    -11.00083420 </i>
    <i name="e_wo_entrp">    -11.00083418 </i>
    <i name="e_0_energy">    -11.00083419 </i>
   </energy>
  </scstep>
  <scstep>
   <time name="dav">    0.09    0.10</time>
   <time name="total">    0.11    0.11</time>
   <energy>
    <i name="e_fr_energy">    -11.00083432 </i>
    <i name="e_wo_entrp">    -11.00083430 </i>
    <i name="e_0_energy">    -11.00083431 </i>
   </energy>
  </scstep>
  <scstep>
   <time name="dav">    0.09    0.09</time>
   <time name="total">    0.14    0.14</time>
   <energy>
    <i name="e_fr_energy">    -10.87637663 </i>
    <i name="e_wo_entrp">    -10.87637640 </i>
    <i name="e_0_energy">    -10.87637651 </i>
   </energy>
  </scstep>
  <scstep>
   <time name="dav">    0.10    0.10</time>
   <time name="total">    0.14    0.15</time>
   <energy>
    <i name="e_fr_energy">    -10.81976801 </i>
    <i name="e_wo_entrp">    -10.81976447 </i>
    <i name="e_0_energy">    -10.81976624 </i>
   </energy>
  </scstep>
  <scstep>
   <time name="dav">    0.08    0.08</time>
   <time name="total">    0.12    0.14</time>
   <energy>
    <i name="e_fr_energy">    -10.82107580 </i>
    <i name="e_wo_entrp">    -10.82107330 </i>
    <i name="e_0_energy">    -10.82107455 </i>
   </energy>
  </scstep>
  <scstep>
   <time name="dav">    0.07    0.07</time>
   <time name="total">    0.10    0.11</time>
   <energy>
    <i name="alphaZ">      3.36414203 </i>
    <i name="ewald">   -228.56352493 </i>
    <i name="hartreedc">    -14.90678385 </i>
    <i name="XCdc">    -17.95328426 </i>
    <i name="pawpsdc">     74.98688715 </i>
    <i name="pawaedc">    -40.03061916 </i>
    <i name="eentropy">     -0.00000247 </i>
    <i name="bandstr">      6.15851659 </i>
    <i name="atom">    206.12349923 </i>
    <i name="e_fr_energy">    -10.82116967 </i>
    <i name="e_wo_entrp">    -10.82116720 </i>
    <i name="e_0_energy">    -10.82116844 </i>
   </energy>
  </scstep>
  <structure>
   <crystal>
    <varray name="basis" >
     <v>       0.00000000       2.71500000       2.71500000 </v>
     <v>       2.71500000       0.00000000       2.71500000 </v>
     <v>       2.71500000       2.71500000       0.00000000 </v>
    </varray>
    <i name="volume">     40.02575175 </i>
    <varray name="rec_basis" >
     <v>      -0.18416206       0.18416206       0.18416206 </v>
     <v>       0.18416206      -0.18416206       0.18416206 </v>
     <v>       0.18416206       0.18416206      -0.18416206 </v>
    </varray>
   </crystal>
   <varray name="positions" >
    <v>       0.50000000       0.50000000       0.50000000 </v>
    <v>       0.75000000       0.75000000       0.75000000 </v>
   </varray>
  </structure>
  <varray name="forces" >
   <v>      -0.00000000      -0.00000000       0.00000000 </v>
   <v>       0.00000000       0.00000000      -0.00000000 </v>
  </varray>
  <varray name="stress" >
   <v>      18.17397875       0.00000000      -0.00000000 </v>
   <v>       0.00000000      18.17397875       0.00000000 </v>
   <v>      -0.00000000      -0.00000000      18.17397875 </v>
  </varray>
  <energy>
   <i name="e_fr_energy">    -10.82116967 </i>
   <i name="e_wo_entrp">    -10.82116844 </i>
   <i name="e_0_energy">     -0.00000247 </i>
  </energy>
  <time name="totalsc">    1.99    2.63</time>
 </calculation>
 <calculation>
  <scstep>
   <time name="dav">    0.10    0.10</time>
   <time name="total">    0.14    0.15</time>
   <energy>
    <i name="alphaZ">      3.25599064 </i>
    <i name="ewald">   -226.08749060 </i>
    <i name="hartreedc">    -14.75706500 </i>
    <i name="XCdc">    -18.11293056 </i>
    <i name="pawpsdc">     74.98290640 </i>
    <i name="pawaedc">    -40.02762527 </i>
    <i name="eentropy">     -0.00000057 </i>
    <i name="bandstr">      3.79345752 </i>
    <i name="atom">    206.12349923 </i>
    <i name="e_fr_energy">    -10.82925823 </i>
    <i name="e_wo_entrp">    -10.82925765 </i>
    <i name="e_0_energy">    -10.82925794 </i>
   </energy>
  </scstep>
  <scstep>
   <time name="dav">    0.11    0.11</time>
   <time name="total">    0.15    0.17</time>
   <energy>
    <i name="e_fr_energy">    -10.82541015 </i>
    <i name="e_wo_entrp">    -10.82540933 </i>
    <i name="e_0_energy">    -10.82540974 </i>
   </energy>
  </scstep>
  <scstep>
   <time name="dav">    0.11    0.11</time>
   <time name="total">    0.15    0.16</time>
   <energy>
    <i name="e_fr_energy">    -10.82340059 </i>
    <i name="e_wo_entrp">    -10.82339934 </i>
    <i name="e_0_energy">    -10.82339997 </i>
   </energy>
  </scstep>
  <scstep>
   <time name="dav">    0.05    0.05</time>
   <time name="total">    0.08    0.09</time>
   <energy>
    <i name="alphaZ">      3.25599064 </i>
    <i name="ewald">   -226.08749060 </i>
    <i name="hartreedc">    -15.30371111 </i>
    <i name="XCdc">    -18.10170430 </i>
    <i name="pawpsdc">     74.00225864 </i>
    <i name="pawaedc">    -39.01956988 </i>
    <i name="eentropy">     -0.00000122 </i>
    <i name="bandstr">      4.30733930 </i>
    <i name="atom">    206.12349923 </i>
    <i name="e_fr_energy">    -10.82338931 </i>
    <i name="e_wo_entrp">    -10.82338809 </i>
    <i name="e_0_energy">    -10.82338870 </i>
   </energy>
  </scstep>
  <structure>
   <crystal>
    <varray name="basis" >
     <v>       0.00000000       2.74473377       2.74473377 </v>
     <v>       2.74473377       0.00000000       2.74473377 </v>
     <v>       2.74473377       2.74473377      -0.00000000 </v>
    </varray>
    <i name="volume">     41.35525207 </i>
    <varray name="rec_basis" >
     <v>      -0.18216703       0.18216703       0.18216703 </v>
     <v>       0.18216703      -0.18216703       0.18216703 </v>
     <v>       0.18216703       0.18216703      -0.18216703 </v>
    </varray>
   </crystal>
   <varray name="positions" >
    <v>       0.50000000       0.50000000       0.50000000 </v>
    <v>       0.75000000       0.75000000       0.75000000 </v>
   </varray>
  </structure>
  <varray name="forces" >
   <v>      -0.00000000      -0.00000000       0.00000000 </v>
   <v>       0.00000000       0.00000000      -0.00000000 </v>
  </varray>
  <varray name="stress" >
   <v>     -11.61782980      -0.00000000      -0.00000000 </v>
   <v>      -0.00000000     -11.61782980       0.00000000 </v>
   <v>      -0.00000000      -0.00000000     -11.61782980 </v>
  </varray>
  <energy>
   <i name="e_fr_energy">    -10.82338931 </i>
   <i name="e_wo_entrp">    -10.82338870 </i>
   <i name="e_0_energy">     -0.00000122 </i>
  </energy>
  <time name="totalsc">    0.70    0.87</time>
 </calculation>
 <calculation>
  <scstep>
   <time name="dav">    0.10    0.10</time>
   <time name="total">    0.15    0.16</time>
   <energy>
    <i name="alphaZ">      3.29844650 </i>
    <i name="ewald">   -227.06592483 </i>
    <i name="hartreedc">    -15.37171699 </i>
    <i name="XCdc">    -18.03956826 </i>
    <i name="pawpsdc">     73.96692065 </i>
    <i name="pawaedc">    -38.98272140 </i>
    <i name="eentropy">     -0.00000213 </i>
    <i name="bandstr">      5.24470262 </i>
    <i name="atom">    206.12349923 </i>
    <i name="e_fr_energy">    -10.82636460 </i>
    <i name="e_wo_entrp">    -10.82636248 </i>
    <i name="e_0_energy">    -10.82636354 </i>
   </energy>
  </scstep>
  <scstep>
   <time name="dav">    0.10    0.10</time>
   <time name="total">    0.14    0.28</time>
   <energy>
    <i name="e_fr_energy">    -10.82574487 </i>
    <i name="e_wo_entrp">    -10.82574301 </i>
    <i name="e_0_energy">    -10.82574394 </i>
   </energy>
  </scstep>
  <scstep>
   <time name="dav">    0.06    0.07</time>
   <time name="total">    0.10    0.16</time>
   <energy>
    <i name="alphaZ">      3.29844650 </i>
    <i name="ewald">   -227.06592483 </i>
    <i name="hartreedc">    -15.14981439 </i>
    <i name="XCdc">    -18.04489435 </i>
    <i name="pawpsdc">     74.29614119 </i>
    <i name="pawaedc">    -39.32035213 </i>
    <i name="eentropy">     -0.00000157 </i>
    <i name="bandstr">      5.03746577 </i>
    <i name="atom">    206.12349923 </i>
    <i name="e_fr_energy">    -10.82543458 </i>
    <i name="e_wo_entrp">    -10.82543301 </i>
    <i name="e_0_energy">    -10.82543379 </i>
   </energy>
  </scstep>
  <structure>
   <crystal>
    <varray name="basis" >
     <v>       0.00000000       2.73290662       2.73290662 </v>
     <v>       2.73290662       0.00000000       2.73290662 </v>
     <v>       2.73290662       2.73290662      -0.00000000 </v>
    </varray>
    <i name="volume">     40.82294913 </i>
    <varray name="rec_basis" >
     <v>      -0.18295539       0.18295539       0.18295539 </v>
     <v>       0.18295539      -0.18295539       0.18295539 </v>
     <v>       0.18295539       0.18295539      -0.18295539 </v>
    </varray>
   </crystal>
   <varray name="positions" >
    <v>       0.50000000       0.50000000       0.50000000 </v>
    <v>       0.75000000       0.75000000       0.75000000 </v>
   </varray>
  </structure>
  <varray name="forces" >
   <v>      -0.00000000       0.00000000      -0.00000000 </v>
   <v>       0.00000000      -0.00000000       0.00000000 </v>
  </varray>
  <varray name="stress" >
   <v>      -0.50495287       0.00000000      -0.00000000 </v>
   <v>       0.00000000      -0.50495287       0.00000000 </v>
   <v>       0.00000000      -0.00000000      -0.50495287 </v>
  </varray>
  <energy>
   <i name="e_fr_energy">    -10.82543458 </i>
   <i name="e_wo_entrp">    -10.82543379 </i>
   <i name="e_0_energy">     -0.00000157 </i>
  </energy>
  <time name="totalsc">    0.58    1.24</time>
  <eigenvalues>
   <array>
    <dimension dim="1">band</dimension>
    <dimension dim="2">kpoint</dimension>
    <dimension dim="3">spin</dimension>
    <field>eigene</field>
    <field>occ</field>
    <set>
     <set comment="spin 1">
      <set comment="kpoint 1">
       <r>   -5.9923    1.0000 </r>
       <r>    4.0483    1.0000 </r>
       <r>    5.3598    1.0000 </r>
       <r>    5.3598    1.0000 </r>
       <r>    8.0918    0.0000 </r>
       <r>    8.6215    0.0000 </r>
       <r>    8.6215    0.0000 </r>
       <r>   10.1857    0.0000 </r>
      </set>
      <set comment="kpoint 2">
       <r>   -4.9647    1.0000 </r>
       <r>    1.0509    1.0000 </r>
       <r>    3.3673    1.0000 </r>
       <r>    4.8768    1.0000 </r>
       <r>    8.3079    0.0000 </r>
       <r>    9.3113    0.0000 </r>
       <r>    9.4925    0.0000 </r>
       <r>   11.8699    0.0000 </r>
      </set>
      <set comment="kpoint 3">
       <r>   -3.8234    1.0000 </r>
       <r>   -1.0314    1.0000 </r>
       <r>    3.3885    1.0000 </r>
       <r>    4.1027    1.0000 </r>
       <r>    7.8145    0.0000 </r>
       <r>    9.1439    0.0000 </r>
       <r>    9.7497    0.0000 </r>
       <r>   12.9690    0.0000 </r>
      </set>
      <set comment="kpoint 4">
       <r>   -5.4640    1.0000 </r>
       <r>    2.4299    1.0000 </r>
       <r>    4.3474    1.0000 </r>
       <r>    4.4124    1.0000 </r>
       <r>    7.7922    0.0000 </r>
       <r>    9.2756    0.0000 </r>
       <r>   10.0826    0.0000 </r>
       <r>   10.3992    0.0000 </r>
      </set>
      <set comment="kpoint 5">
       <r>   -4.4315    1.0000 </r>
       <r>    0.7185    1.0000 </r>
       <r>    3.0174    1.0000 </r>
       <r>    3.4710    1.0000 </r>
       <r>    7.0184    0.0000 </r>
       <r>    8.5580    0.0000 </r>
       <r>   11.5719    0.0000 </r>
       <r>   11.8729    0.0000 </r>
      </set>
      <set comment="kpoint 6">
       <r>   -2.7895    1.0000 </r>
       <r>   -1.2464    1.0000 </r>
       <r>    1.6599    1.0000 </r>
       <r>    2.7384    1.0000 </r>
       <r>    8.0466    0.0000 </r>
       <r>    9.9278    0.0000 </r>
       <r>   10.8703    0.0000 </r>
       <r>   13.0172    0.0000 </r>
      </set>
      <set comment="kpoint 7">
       <r>   -4.0154    1.0000 </r>
       <r>   -0.1575    1.0000 </r>
       <r>    2.3746    1.0000 </r>
       <r>    3.7459    1.0000 </r>
       <r>    8.5166    0.0000 </r>
       <r>    9.1846    0.0000 </r>
       <r>   10.6362    0.0000 </r>
       <r>   11.5459    0.0000 </r>
      </set>
      <set comment="kpoint 8">
       <r>   -2.9575    1.0000 </r>
       <r>   -1.1488    1.0000 </r>
       <r>    2.2707    1.0000 </r>
       <r>    3.0028    1.0000 </r>
       <r>    6.5799    0.0000 </r>
       <r>    7.6362    0.0000 </r>
       <r>   13.8452    0.0000 </r>
       <r>   13.9021    0.0000 </r>
      </set>
      <set comment="kpoint 9">
       <r>   -4.5312    1.0000 </r>
       <r>   -0.2424    1.0000 </r>
       <r>    4.5690    1.0000 </r>
       <r>    4.5690    1.0000 </r>
       <r>    7.2470    0.0000 </r>
       <r>    9.1075    0.0000 </r>
       <r>    9.1075    0.0000 </r>
       <r>   13.4838    0.0000 </r>
      </set>
      <set comment="kpoint 10">
       <r>   -3.3271    1.0000 </r>
       <r>   -0.9447    1.0000 </r>
       <r>    1.7188    1.0000 </r>
       <r>    3.7846    1.0000 </r>
       <r>    7.5071    0.0000 </r>
       <r>   11.0662    0.0000 </r>
       <r>   11.1019    0.0000 </r>
       <r>   12.5474    0.0000 </r>
      </set>
     </set>
    </set>
   </array>
  </eigenvalues>
  <separator name="orbital magnetization" >
   <v name="MAGDIPOLOUT">      0.00000000      0.00000000      0.00000000</v>
  </separator>
  <dos>
   <i name="efermi">      5.96351153 </i>
   <total>
    <array>
     <dimension dim="1">gridpoints</dimension>
     <dimension dim="2">spin</dimension>
     <field>energy</field>
     <field>total</field>
     <field>integrated</field>
     <set>
      <set comment="spin 1">
       <r>    -7.9923     0.0000     0.0000 </r>
       <r>    -7.9127     0.0000     0.0000 </r>
       <r>    -7.8330     0.0000     0.0000 </r>
       <r>    -7.7534     0.0000     0.0000 </r>
       <r>    -7.6738     0.0000     0.0000 </r>
       <r>    -7.5941     0.0000     0.0000 </r>
       <r>    -7.5145     0.0000     0.0000 </r>
       <r>    -7.4348     0.0000     0.0000 </r>
       <r>    -7.3552     0.0000     0.0000 </r>
       <r>    -7.2755     0.0000     0.0000 </r>
       <r>    -7.1959     0.0000     0.0000 </r>
       <r>    -7.1162     0.0000     0.0000 </r>
       <r>    -7.0366     0.0000     0.0000 </r>
       <r>    -6.9569     0.0000     0.0000 </r>
       <r>    -6.8773     0.0000     0.0000 </r>
       <r>    -6.7976     0.0000     0.0000 </r>
       <r>    -6.7180     0.0000     0.0000 </r>
       <r>    -6.6383     0.0000     0.0000 </r>
       <r>    -6.5587     0.0000     0.0000 </r>
       <r>    -6.4790     0.0002     0.0000 </r>
       <r>    -6.3994     0.0013     0.0001 </r>
       <r>    -6.3197     0.0065     0.0006 </r>
       <r>    -6.2401     0.0232     0.0025 </r>
       <r>    -6.1604     0.0607     0.0073 </r>
       <r>    -6.0808     0.1166     0.0166 </r>
       <r>    -6.0011     0.1644     0.0297 </r>
       <r>    -5.9215     0.1712     0.0434 </r>
       <r>    -5.8418     0.1366     0.0542 </r>
       <r>    -5.7622     0.1043     0.0625 </r>
       <r>    -5.6825     0.1322     0.0731 </r>
       <r>    -5.6029     0.2487     0.0929 </r>
       <r>    -5.5232     0.4131     0.1258 </r>
       <r>    -5.4436     0.5183     0.1671 </r>
       <r>    -5.3640     0.4827     0.2055 </r>
       <r>    -5.2843     0.3466     0.2331 </r>
       <r>    -5.2047     0.2390     0.2522 </r>
       <r>    -5.1250     0.2558     0.2725 </r>
       <r>    -5.0454     0.3824     0.3030 </r>
       <r>    -4.9657     0.5052     0.3432 </r>
       <r>    -4.8861     0.5090     0.3838 </r>
       <r>    -4.8064     0.3945     0.4152 </r>
       <r>    -4.7268     0.2799     0.4375 </r>
       <r>    -4.6471     0.2828     0.4600 </r>
       <r>    -4.5675     0.4206     0.4935 </r>
       <r>    -4.4878     0.5975     0.5411 </r>
       <r>    -4.4082     0.6773     0.5951 </r>
       <r>    -4.3285     0.6156     0.6441 </r>
       <r>    -4.2489     0.5313     0.6864 </r>
       <r>    -4.1692     0.6033     0.7345 </r>
       <r>    -4.0896     0.8742     0.8041 </r>
       <r>    -4.0099     1.1800     0.8981 </r>
       <r>    -3.9303     1.3053     1.0020 </r>
       <r>    -3.8506     1.1824     1.0962 </r>
       <r>    -3.7710     0.8985     1.1678 </r>
       <r>    -3.6913     0.5801     1.2140 </r>
       <r>    -3.6117     0.3360     1.2407 </r>
       <r>    -3.5320     0.2420     1.2600 </r>
       <r>    -3.4524     0.3068     1.2844 </r>
       <r>    -3.3727     0.4492     1.3202 </r>
       <r>    -3.2931     0.5407     1.3633 </r>
       <r>    -3.2135     0.5248     1.4051 </r>
       <r>    -3.1338     0.4902     1.4441 </r>
       <r>    -3.0542     0.5797     1.4903 </r>
       <r>    -2.9745     0.8355     1.5569 </r>
       <r>    -2.8949     1.1525     1.6487 </r>
       <r>    -2.8152     1.3469     1.7559 </r>
       <r>    -2.7356     1.2721     1.8573 </r>
       <r>    -2.6559     0.9414     1.9322 </r>
       <r>    -2.5763     0.5327     1.9747 </r>
       <r>    -2.4966     0.2265     1.9927 </r>
       <r>    -2.4170     0.0716     1.9984 </r>
       <r>    -2.3373     0.0167     1.9997 </r>
       <r>    -2.2577     0.0029     2.0000 </r>
       <r>    -2.1780     0.0004     2.0000 </r>
       <r>    -2.0984     0.0000     2.0000 </r>
       <r>    -2.0187     0.0000     2.0000 </r>
       <r>    -1.9391     0.0000     2.0000 </r>
       <r>    -1.8594     0.0000     2.0000 </r>
       <r>    -1.7798     0.0004     2.0000 </r>
       <r>    -1.7001     0.0029     2.0003 </r>
       <r>    -1.6205     0.0170     2.0016 </r>
       <r>    -1.5408     0.0746     2.0076 </r>
       <r>    -1.4612     0.2435     2.0270 </r>
       <r>    -1.3815     0.5959     2.0744 </r>
       <r>    -1.3019     1.1090     2.1627 </r>
       <r>    -1.2222     1.6074     2.2908 </r>
       <r>    -1.1426     1.8841     2.4408 </r>
       <r>    -1.0629     1.8727     2.5900 </r>
       <r>    -0.9833     1.6361     2.7203 </r>
       <r>    -0.9037     1.2533     2.8201 </r>
       <r>    -0.8240     0.8106     2.8847 </r>
       <r>    -0.7444     0.4231     2.9184 </r>
       <r>    -0.6647     0.1736     2.9322 </r>
       <r>    -0.5851     0.0633     2.9373 </r>
       <r>    -0.5054     0.0579     2.9419 </r>
       <r>    -0.4258     0.1574     2.9544 </r>
       <r>    -0.3461     0.3987     2.9862 </r>
       <r>    -0.2665     0.7667     3.0472 </r>
       <r>    -0.1868     1.1024     3.1350 </r>
       <r>    -0.1072     1.1806     3.2291 </r>
       <r>    -0.0275     0.9390     3.3039 </r>
       <r>     0.0521     0.5531     3.3479 </r>
       <r>     0.1318     0.2408     3.3671 </r>
       <r>     0.2114     0.0777     3.3733 </r>
       <r>     0.2911     0.0208     3.3749 </r>
       <r>     0.3707     0.0166     3.3763 </r>
       <r>     0.4504     0.0523     3.3804 </r>
       <r>     0.5300     0.1471     3.3921 </r>
       <r>     0.6097     0.3067     3.4166 </r>
       <r>     0.6893     0.4752     3.4544 </r>
       <r>     0.7690     0.5625     3.4992 </r>
       <r>     0.8486     0.5532     3.5433 </r>
       <r>     0.9283     0.5328     3.5857 </r>
       <r>     1.0079     0.5562     3.6300 </r>
       <r>     1.0876     0.5592     3.6746 </r>
       <r>     1.1672     0.4628     3.7114 </r>
       <r>     1.2468     0.2979     3.7352 </r>
       <r>     1.3265     0.1757     3.7492 </r>
       <r>     1.4061     0.1996     3.7651 </r>
       <r>     1.4858     0.4395     3.8001 </r>
       <r>     1.5654     0.8857     3.8706 </r>
       <r>     1.6451     1.3526     3.9783 </r>
       <r>     1.7247     1.5360     4.1007 </r>
       <r>     1.8044     1.2968     4.2040 </r>
       <r>     1.8840     0.8199     4.2693 </r>
       <r>     1.9637     0.4151     4.3023 </r>
       <r>     2.0433     0.2659     4.3235 </r>
       <r>     2.1230     0.4155     4.3566 </r>
       <r>     2.2026     0.8422     4.4237 </r>
       <r>     2.2823     1.4199     4.5368 </r>
       <r>     2.3619     1.8745     4.6861 </r>
       <r>     2.4416     1.9472     4.8412 </r>
       <r>     2.5212     1.6674     4.9740 </r>
       <r>     2.6009     1.3513     5.0816 </r>
       <r>     2.6805     1.2470     5.1809 </r>
       <r>     2.7602     1.2990     5.2844 </r>
       <r>     2.8398     1.3411     5.3912 </r>
       <r>     2.9195     1.3408     5.4980 </r>
       <r>     2.9991     1.3143     5.6027 </r>
       <r>     3.0788     1.2076     5.6988 </r>
       <r>     3.1584     1.0441     5.7820 </r>
       <r>     3.2381     1.0100     5.8624 </r>
       <r>     3.3177     1.2173     5.9594 </r>
       <r>     3.3974     1.5006     6.0789 </r>
       <r>     3.4770     1.6064     6.2069 </r>
       <r>     3.5566     1.5328     6.3290 </r>
       <r>     3.6363     1.5123     6.4494 </r>
       <r>     3.7159     1.6396     6.5800 </r>
       <r>     3.7956     1.7079     6.7160 </r>
       <r>     3.8752     1.5267     6.8376 </r>
       <r>     3.9549     1.2116     6.9341 </r>
       <r>     4.0345     0.9983     7.0137 </r>
       <r>     4.1142     0.9444     7.0889 </r>
       <r>     4.1938     0.9770     7.1667 </r>
       <r>     4.2735     1.0695     7.2519 </r>
       <r>     4.3531     1.1991     7.3474 </r>
       <r>     4.4328     1.2556     7.4474 </r>
       <r>     4.5124     1.1423     7.5384 </r>
       <r>     4.5921     0.9020     7.6102 </r>
       <r>     4.6717     0.6721     7.6637 </r>
       <r>     4.7514     0.5605     7.7084 </r>
       <r>     4.8310     0.5617     7.7531 </r>
       <r>     4.9107     0.5642     7.7981 </r>
       <r>     4.9903     0.4738     7.8358 </r>
       <r>     5.0700     0.3211     7.8614 </r>
       <r>     5.1496     0.2154     7.8785 </r>
       <r>     5.2293     0.2200     7.8961 </r>
       <r>     5.3089     0.2972     7.9197 </r>
       <r>     5.3886     0.3493     7.9476 </r>
       <r>     5.4682     0.3106     7.9723 </r>
       <r>     5.5479     0.2038     7.9885 </r>
       <r>     5.6275     0.0983     7.9964 </r>
       <r>     5.7071     0.0348     7.9991 </r>
       <r>     5.7868     0.0090     7.9998 </r>
       <r>     5.8664     0.0017     8.0000 </r>
       <r>     5.9461     0.0002     8.0000 </r>
       <r>     6.0257     0.0001     8.0000 </r>
       <r>     6.1054     0.0008     8.0001 </r>
       <r>     6.1850     0.0052     8.0005 </r>
       <r>     6.2647     0.0242     8.0024 </r>
       <r>     6.3443     0.0823     8.0090 </r>
       <r>     6.4240     0.2054     8.0253 </r>
       <r>     6.5036     0.3762     8.0553 </r>
       <r>     6.5833     0.5075     8.0957 </r>
       <r>     6.6629     0.5105     8.1364 </r>
       <r>     6.7426     0.4078     8.1689 </r>
       <r>     6.8222     0.3278     8.1950 </r>
       <r>     6.9019     0.3677     8.2243 </r>
       <r>     6.9815     0.4921     8.2635 </r>
       <r>     7.0612     0.5785     8.3095 </r>
       <r>     7.1408     0.5563     8.3538 </r>
       <r>     7.2205     0.4738     8.3916 </r>
       <r>     7.3001     0.4348     8.4262 </r>
       <r>     7.3798     0.5148     8.4672 </r>
       <r>     7.4594     0.7239     8.5249 </r>
       <r>     7.5391     1.0024     8.6047 </r>
       <r>     7.6187     1.2673     8.7056 </r>
       <r>     7.6984     1.4722     8.8229 </r>
       <r>     7.7780     1.5985     8.9502 </r>
       <r>     7.8577     1.6405     9.0809 </r>
       <r>     7.9373     1.6374     9.2113 </r>
       <r>     8.0169     1.6264     9.3408 </r>
       <r>     8.0966     1.5573     9.4649 </r>
       <r>     8.1762     1.3898     9.5756 </r>
       <r>     8.2559     1.2328     9.6738 </r>
       <r>     8.3355     1.2588     9.7740 </r>
       <r>     8.4152     1.5208     9.8951 </r>
       <r>     8.4948     1.8655    10.0437 </r>
       <r>     8.5745     1.9947    10.2026 </r>
       <r>     8.6541     1.7140    10.3391 </r>
       <r>     8.7338     1.1508    10.4308 </r>
       <r>     8.8134     0.6384    10.4816 </r>
       <r>     8.8931     0.4438    10.5170 </r>
       <r>     8.9727     0.6768    10.5709 </r>
       <r>     9.0524     1.3028    10.6747 </r>
       <r>     9.1320     2.0887    10.8410 </r>
       <r>     9.2117     2.6368    11.0510 </r>
       <r>     9.2913     2.6616    11.2630 </r>
       <r>     9.3710     2.2298    11.4406 </r>
       <r>     9.4506     1.6512    11.5721 </r>
       <r>     9.5303     1.1868    11.6667 </r>
       <r>     9.6099     0.9374    11.7413 </r>
       <r>     9.6896     0.9157    11.8143 </r>
       <r>     9.7692     1.0882    11.9009 </r>
       <r>     9.8489     1.3571    12.0090 </r>
       <r>     9.9285     1.5737    12.1344 </r>
       <r>    10.0082     1.6086    12.2625 </r>
       <r>    10.0878     1.4371    12.3770 </r>
       <r>    10.1674     1.1566    12.4691 </r>
       <r>    10.2471     0.9134    12.5418 </r>
       <r>    10.3267     0.8080    12.6062 </r>
       <r>    10.4064     0.8499    12.6739 </r>
       <r>    10.4860     0.9969    12.7533 </r>
       <r>    10.5657     1.2028    12.8491 </r>
       <r>    10.6453     1.4021    12.9608 </r>
       <r>    10.7250     1.5326    13.0828 </r>
       <r>    10.8046     1.6044    13.2106 </r>
       <r>    10.8843     1.6563    13.3425 </r>
       <r>    10.9639     1.6737    13.4758 </r>
       <r>    11.0436     1.6044    13.6036 </r>
       <r>    11.1232     1.3968    13.7149 </r>
       <r>    11.2029     1.0610    13.7994 </r>
       <r>    11.2825     0.7509    13.8592 </r>
       <r>    11.3622     0.6970    13.9147 </r>
       <r>    11.4418     0.9866    13.9933 </r>
       <r>    11.5215     1.4215    14.1065 </r>
       <r>    11.6011     1.6634    14.2390 </r>
       <r>    11.6808     1.5900    14.3656 </r>
       <r>    11.7604     1.4017    14.4773 </r>
       <r>    11.8401     1.2858    14.5797 </r>
       <r>    11.9197     1.1630    14.6723 </r>
       <r>    11.9994     0.8938    14.7435 </r>
       <r>    12.0790     0.5323    14.7859 </r>
       <r>    12.1587     0.2417    14.8051 </r>
       <r>    12.2383     0.1041    14.8134 </r>
       <r>    12.3180     0.1079    14.8220 </r>
       <r>    12.3976     0.2209    14.8396 </r>
       <r>    12.4772     0.3902    14.8707 </r>
       <r>    12.5569     0.5165    14.9118 </r>
       <r>    12.6365     0.5239    14.9536 </r>
       <r>    12.7162     0.4746    14.9914 </r>
       <r>    12.7958     0.5521    15.0353 </r>
       <r>    12.8755     0.8756    15.1051 </r>
       <r>    12.9551     1.3170    15.2100 </r>
       <r>    13.0348     1.5496    15.3334 </r>
       <r>    13.1144     1.3649    15.4421 </r>
       <r>    13.1941     0.8995    15.5138 </r>
       <r>    13.2737     0.4653    15.5508 </r>
       <r>    13.3534     0.2385    15.5698 </r>
       <r>    13.4330     0.1869    15.5847 </r>
       <r>    13.5127     0.2049    15.6010 </r>
       <r>    13.5923     0.2476    15.6207 </r>
       <r>    13.6720     0.3633    15.6497 </r>
       <r>    13.7516     0.6036    15.6978 </r>
       <r>    13.8313     0.8913    15.7687 </r>
       <r>    13.9109     1.0280    15.8506 </r>
       <r>    13.9906     0.8917    15.9216 </r>
       <r>    14.0702     0.5763    15.9675 </r>
       <r>    14.1499     0.2768    15.9896 </r>
       <r>    14.2295     0.0987    15.9975 </r>
       <r>    14.3092     0.0261    15.9995 </r>
       <r>    14.3888     0.0051    15.9999 </r>
       <r>    14.4685     0.0007    16.0000 </r>
       <r>    14.5481     0.0001    16.0000 </r>
       <r>    14.6278     0.0000    16.0000 </r>
       <r>    14.7074     0.0000    16.0000 </r>
       <r>    14.7870     0.0000    16.0000 </r>
       <r>    14.8667     0.0000    16.0000 </r>
       <r>    14.9463     0.0000    16.0000 </r>
       <r>    15.0260     0.0000    16.0000 </r>
       <r>    15.1056     0.0000    16.0000 </r>
       <r>    15.1853     0.0000    16.0000 </r>
       <r>    15.2649     0.0000    16.0000 </r>
       <r>    15.3446     0.0000    16.0000 </r>
       <r>    15.4242     0.0000    16.0000 </r>
       <r>    15.5039     0.0000    16.0000 </r>
       <r>    15.5835     0.0000    16.0000 </r>
       <r>    15.6632     0.0000    16.0000 </r>
       <r>    15.7428     0.0000    16.0000 </r>
       <r>    15.8225     0.0000    16.0000 </r>
       <r>    15.9021     0.0000    16.0000 </r>
      </set>
     </set>
    </array>
   </total>
  </dos>
 </calculation>
 <structure name="finalpos" >
  <crystal>
   <varray name="basis" >
    <v>       0.00000000       2.73290662       2.73290662 </v>
    <v>       2.73290662       0.00000000       2.73290662 </v>
    <v>       2.73290662       2.73290662      -0.00000000 </v>
   </varray>
   <i name="volume">     40.82294913 </i>
   <varray name="rec_basis" >
    <v>      -0.18295539       0.18295539       0.18295539 </v>
    <v>       0.18295539      -0.18295539       0.18295539 </v>
    <v>       0.18295539       0.18295539      -0.18295539 </v>
   </varray>
  </crystal>
  <varray name="positions" >
   <v>       0.50000000       0.50000000       0.50000000 </v>
   <v>       0.75000000       0.75000000       0.75000000 </v>
  </varray>
 </structure>
</modeling>
