unknown system                          
   1.00000000000000     
    -2.336391    2.336391    1.333628
     2.336391   -2.336391    1.333628
     2.336391    2.336391   -1.333628
   Si
     2
Direct
  0.250000  0.750000  0.500000
 -0.000000 -0.000000 -0.000000
 
   36   36   36
 -.50036632102E+01 -.41712373011E+01 -.18677568833E+01 0.13870759686E+01 0.49062964867E+01
 0.80272908327E+01 0.10269185465E+02 0.11415768128E+02 0.11518616708E+02 0.10837660254E+02
 0.97431916696E+01 0.85698926421E+01 0.74593329904E+01 0.64858343725E+01 0.56916105977E+01
 0.50902919675E+01 0.46764489040E+01 0.44365234606E+01 0.43581676291E+01 0.44365215297E+01
 0.46764492840E+01 0.50902943343E+01 0.56916102822E+01 0.64858316030E+01 0.74593329218E+01
 0.85698956763E+01 0.97431925785E+01 0.10837657682E+02 0.11518615051E+02 0.11415769191E+02
 0.10269186383E+02 0.80272908409E+01 0.49062977499E+01 0.13870773241E+01 -.18677589360E+01
 -.41712410607E+01 -.41712410607E+01 -.45507623419E+01 -.33122496604E+01 -.74712067667E+00
 0.25689557270E+01 0.59488933369E+01 0.87796574660E+01 0.10658977966E+02 0.11453574947E+02
 0.11282007287E+02 0.10442640471E+02 0.93097325418E+01 0.81581469348E+01 0.70941342041E+01
 0.61820493749E+01 0.54547123705E+01 0.49190814553E+01 0.45664393406E+01 0.43828943659E+01
 0.43578381657E+01 0.44891304206E+01 0.47841196527E+01 0.52562734714E+01 0.59180143228E+01
 0.67707662010E+01 0.77939974173E+01 0.89368835117E+01 0.10116576717E+02 0.11147455606E+02
 0.11666393812E+02 0.11324200807E+02 0.99106040526E+01 0.74434328074E+01 0.42119672760E+01
 0.75203322035E+00 -.22588039615E+01 -.18677589360E+01 -.33122518940E+01 -.32512175568E+01
 -.17065316295E+01 0.95502646962E+00 0.41372099501E+01 0.71900112095E+01 0.95788580413E+01
 0.10995387830E+02 0.11390987642E+02 0.10942482273E+02 0.99714731285E+01 0.88307367343E+01
 0.77160653339E+01 0.67116198307E+01 0.58703776634E+01 0.52156637117E+01 0.47484736308E+01
 0.44577438739E+01 0.43300566836E+01 0.43570053453E+01 0.45391689322E+01 0.48859545790E+01
 0.54112811474E+01 0.61257462604E+01 0.70263396888E+01 0.80859015047E+01 0.92463832134E+01
 0.10416369564E+02 0.11371714202E+02 0.11747361263E+02 0.11228214789E+02 0.96597407045E+01
 0.71247627628E+01 0.39683830732E+01 0.75203322035E+00 0.13870773241E+01 -.74712141123E+00
 -.17065314570E+01 -.12720150306E+01 0.44125052263E+00 0.30211704756E+01 0.58874730743E+01
 0.84592428166E+01 0.10300300481E+02 0.11202060769E+02 0.11194684670E+02 0.10499513404E+02
 0.94437114639E+01 0.83219922455E+01 0.72590683724E+01 0.63252698742E+01 0.55616156983E+01
 0.49825252136E+01 0.45841156451E+01 0.43540126934E+01 0.42799797776E+01 0.43560587201E+01
 0.45853264566E+01 0.49787033199E+01 0.55499121746E+01 0.63072070253E+01 0.72430601489E+01
 0.83244338958E+01 0.94878676216E+01 0.10634031904E+02 0.11515507689E+02 0.11784450532E+02
 0.11168681310E+02 0.95697759011E+01 0.71247627628E+01 0.42119672760E+01 0.49062977499E+01
 0.25689556542E+01 0.95502726297E+00 0.44125300406E+00 0.11412047110E+01 0.28693795975E+01
 0.52015102574E+01 0.76060019542E+01 0.95942000618E+01 0.10837848475E+02 0.11225020181E+02
 0.10852526161E+02 0.99690633315E+01 0.88844889409E+01 0.78005124151E+01 0.68027638308E+01
 0.59480657053E+01 0.52657994118E+01 0.47626537025E+01 0.44311689373E+01 0.42586555328E+01
 0.42345781080E+01 0.43554410467E+01 0.46264293190E+01 0.50593916233E+01 0.56672939288E+01
 0.64557331587E+01 0.74129112214E+01 0.85010449842E+01 0.96533230531E+01 0.10765531042E+02
 0.11585276518E+02 0.11794719804E+02 0.11168681310E+02 0.96597407045E+01 0.74434328074E+01
 0.80272908409E+01 0.59488921847E+01 0.41372084195E+01 0.30211723672E+01 0.28693834397E+01
 0.37056763393E+01 0.53023161177E+01 0.72541733061E+01 0.91032348329E+01 0.10465641085E+02
 0.11120535728E+02 0.11042094192E+02 0.10377229829E+02 0.93831496749E+01 0.83134262147E+01
 0.72837278780E+01 0.63621120808E+01 0.55918134711E+01 0.49917218752E+01 0.45623617059E+01
 0.42940380503E+01 0.41745863542E+01 0.41954612958E+01 0.43554411534E+01 0.46613337421E+01
 0.51253528203E+01 0.57592578017E+01 0.65658767755E+01 0.75296736510E+01 0.86095171786E+01
 0.97373889883E+01 0.10809457773E+02 0.11585276518E+02 0.11784450532E+02 0.11228214789E+02
 0.99106040526E+01 0.10269186383E+02 0.87796575883E+01 0.71900082419E+01 0.58874705496E+01
 0.52015124357E+01 0.53023200046E+01 0.61465576589E+01 0.74928186670E+01 0.89805082173E+01
 0.10240180331E+02 0.10994829027E+02 0.11122076018E+02 0.10666250863E+02 0.98052613359E+01
 0.87804105346E+01 0.77497418298E+01 0.67885810187E+01 0.59506795428E+01 0.52666432803E+01
 0.47466254791E+01 0.43867073622E+01 0.41761820147E+01 0.41040238112E+01 0.41637419562E+01
 0.43560588503E+01 0.46888893382E+01 0.51742983452E+01 0.58224966073E+01 0.66336105837E+01
 0.75891212228E+01 0.86460929169E+01 0.97373889883E+01 0.10765531042E+02 0.11515507689E+02
 0.11747361263E+02 0.11324200807E+02 0.11415769191E+02 0.10658980801E+02 0.95788585074E+01
 0.84592392491E+01 0.76059991808E+01 0.72541749834E+01 0.74928214846E+01 0.82364938897E+01
 0.92550551516E+01 0.10249481929E+02 0.10943800696E+02 0.11161051202E+02 0.10862257060E+02
 0.10142632515E+02 0.91909345535E+01 0.81860201414E+01 0.72126404100E+01 0.63306373020E+01
 0.55800807717E+01 0.49807401115E+01 0.45360963111E+01 0.42394410382E+01 0.40800524132E+01
 0.40484146524E+01 0.41399783217E+01 0.43570050601E+01 0.47080074582E+01 0.52044369969E+01
 0.58547077936E+01 0.66564656953E+01 0.75891212228E+01 0.86095171786E+01 0.96533230531E+01
 0.10634031904E+02 0.11371714202E+02 0.11666393812E+02 0.11518615051E+02 0.11453576433E+02
 0.10995391545E+02 0.10300301403E+02 0.95941971395E+01 0.91032325480E+01 0.89805089585E+01
 0.92550563645E+01 0.98229281191E+01 0.10483850261E+02 0.11008436671E+02 0.11210351150E+02
 0.10999292672E+02 0.10400726972E+02 0.95401053149E+01 0.85825196180E+01 0.76219893244E+01
 0.67201303807E+01 0.59233509648E+01 0.52596746317E+01 0.47403133438E+01 0.43641474928E+01
 0.41231039005E+01 0.40071734200E+01 0.40085090572E+01 0.41242744791E+01 0.43578370750E+01
 0.47178128298E+01 0.52146161984E+01 0.58547077936E+01 0.66336105837E+01 0.75296736510E+01
 0.85010449842E+01 0.94878676216E+01 0.10416369564E+02 0.11147455606E+02 0.10837657682E+02
 0.11282004632E+02 0.11390988694E+02 0.11202064164E+02 0.10837849733E+02 0.10465639578E+02
 0.10240179024E+02 0.10249481752E+02 0.10483849960E+02 0.10840097727E+02 0.11158951601E+02
 0.11280614477E+02 0.11097905992E+02 0.10589568167E+02 0.98247482830E+01 0.89326230818E+01
 0.80074120499E+01 0.71093098564E+01 0.62879549172E+01 0.55776055225E+01 0.49965290018E+01
 0.45497662668E+01 0.42334443145E+01 0.40392430663E+01 0.39583404735E+01 0.39845622364E+01
 0.41164941425E+01 0.43581656510E+01 0.47178128298E+01 0.52044369969E+01 0.58224966073E+01
 0.65658767755E+01 0.74129112214E+01 0.83244338958E+01 0.92463832134E+01 0.10116576717E+02
 0.97431925785E+01 0.10442637965E+02 0.10942479318E+02 0.11194684774E+02 0.11225022346E+02
 0.11120536983E+02 0.10994829037E+02 0.10943800503E+02 0.11008435912E+02 0.11158950275E+02
 0.11306320905E+02 0.11336227697E+02 0.11151978366E+02 0.10710655555E+02 0.10040346138E+02
 0.92301720850E+01 0.83613881365E+01 0.74900705666E+01 0.66664158193E+01 0.59288636696E+01
 0.53015896708E+01 0.47956155817E+01 0.44119959935E+01 0.41456041401E+01 0.39886850644E+01
 0.39338782542E+01 0.39765873310E+01 0.41164941425E+01 0.43578370750E+01 0.47080074582E+01
 0.51742983452E+01 0.57592578017E+01 0.64557331587E+01 0.72430601489E+01 0.80859015047E+01
 0.89368835117E+01 0.85698956763E+01 0.93097342747E+01 0.99714716315E+01 0.10499510942E+02
 0.10852525352E+02 0.11042094764E+02 0.11122076870E+02 0.11161052304E+02 0.11210351897E+02
 0.11280613544E+02 0.11336225922E+02 0.11309613763E+02 0.11129327720E+02 0.10750804572E+02
 0.10178175629E+02 0.94665248531E+01 0.86756082489E+01 0.78545630274E+01 0.70518280252E+01
 0.63081335509E+01 0.56523551393E+01 0.51009846624E+01 0.46601546614E+01 0.43287413261E+01
 0.41014993539E+01 0.39717989840E+01 0.39338782542E+01 0.39845622364E+01 0.41242744791E+01
 0.43570050601E+01 0.46888893382E+01 0.51253528203E+01 0.56672939288E+01 0.63072070253E+01
 0.70263396888E+01 0.77939974173E+01 0.74593329218E+01 0.81581494601E+01 0.88307388722E+01
 0.94437113535E+01 0.99690619897E+01 0.10377228579E+02 0.10666250026E+02 0.10862257239E+02
 0.10999294249E+02 0.11097907325E+02 0.11151977542E+02 0.11129325937E+02 0.10985634577E+02
 0.10685768959E+02 0.10223747949E+02 0.96292318098E+01 0.89388637564E+01 0.81930453460E+01
 0.74362463306E+01 0.67095585909E+01 0.60453066785E+01 0.54648659534E+01 0.49793593712E+01
 0.45920068038E+01 0.43008988099E+01 0.41014993539E+01 0.39886850644E+01 0.39583404735E+01
 0.40085090572E+01 0.41399783217E+01 0.43560588503E+01 0.46613337421E+01 0.50593916233E+01
 0.55499121746E+01 0.61257462604E+01 0.67707662010E+01 0.64858316030E+01 0.70941330978E+01
 0.77160665968E+01 0.83219940984E+01 0.88844899923E+01 0.93831497147E+01 0.98052602399E+01
 0.10142630797E+02 0.10400726463E+02 0.10589569710E+02 0.10710657089E+02 0.10750803960E+02
 0.10685767417E+02 0.10491997048E+02 0.10161202739E+02 0.97030838037E+01 0.91365415328E+01
 0.84923387696E+01 0.78087520186E+01 0.71249968245E+01 0.64752590429E+01 0.58850268566E+01
 0.53702406536E+01 0.49386202476E+01 0.45920068038E+01 0.43287413261E+01 0.41456041401E+01
 0.40392430663E+01 0.40071734200E+01 0.40484146524E+01 0.41637419562E+01 0.43554411534E+01
 0.46264293190E+01 0.49787033199E+01 0.54112811474E+01 0.59180143228E+01 0.56916102822E+01
 0.61820472297E+01 0.67116181129E+01 0.72590681219E+01 0.78005133454E+01 0.83134278279E+01
 0.87804117832E+01 0.91909340095E+01 0.95401033237E+01 0.98247473130E+01 0.10040347374E+02
 0.10178177049E+02 0.10223747538E+02 0.10161201561E+02 0.99789381124E+01 0.96732734682E+01
 0.92521690438E+01 0.87358556771E+01 0.81542887325E+01 0.75422146660E+01 0.69334766196E+01
 0.63563641645E+01 0.58311907710E+01 0.53702406536E+01 0.49793593712E+01 0.46601546614E+01
 0.44119959935E+01 0.42334443145E+01 0.41231039005E+01 0.40800524132E+01 0.41040238112E+01
 0.41954612958E+01 0.43554410467E+01 0.45853264566E+01 0.48859545790E+01 0.52562734714E+01
 0.50902943343E+01 0.54547132608E+01 0.58703768398E+01 0.63252682541E+01 0.68027623451E+01
 0.72837276055E+01 0.77497433590E+01 0.81860220915E+01 0.85825196934E+01 0.89326213068E+01
 0.92301709858E+01 0.94665256990E+01 0.96292329199E+01 0.97030835727E+01 0.96732727237E+01
 0.95296421655E+01 0.92706143596E+01 0.89054676865E+01 0.84540669327E+01 0.79439922896E+01
 0.74059390260E+01 0.68688682838E+01 0.63563641645E+01 0.58850268566E+01 0.54648659534E+01
 0.51009846624E+01 0.47956155817E+01 0.45497662668E+01 0.43641474928E+01 0.42394410382E+01
 0.41761820147E+01 0.41745863542E+01 0.42345781080E+01 0.43560587201E+01 0.45391689322E+01
 0.47841196527E+01 0.46764492840E+01 0.49190831496E+01 0.52156653949E+01 0.55616164075E+01
 0.59480648049E+01 0.63621100003E+01 0.67885797328E+01 0.72126414169E+01 0.76219913512E+01
 0.80074125571E+01 0.83613868663E+01 0.86756072933E+01 0.89388642054E+01 0.91365422489E+01
 0.92521690092E+01 0.92706140784E+01 0.91819530259E+01 0.89847609707E+01 0.86877116519E+01
 0.83088497525E+01 0.78726747654E+01 0.74059390260E+01 0.69334766196E+01 0.64752590429E+01
 0.60453066785E+01 0.56523551393E+01 0.53015896708E+01 0.49965290018E+01 0.47403133438E+01
 0.45360963111E+01 0.43867073622E+01 0.42940380503E+01 0.42586555328E+01 0.42799797776E+01
 0.43570053453E+01 0.44891304206E+01 0.44365215297E+01 0.45664382726E+01 0.47484740335E+01
 0.49825270026E+01 0.52658012967E+01 0.55918135506E+01 0.59506775945E+01 0.63306355316E+01
 0.67201307172E+01 0.71093114487E+01 0.74900712534E+01 0.78545623654E+01 0.81930446506E+01
 0.84923388198E+01 0.87358560099E+01 0.89054678698E+01 0.89847611025E+01 0.89627177170E+01
 0.88366671835E+01 0.86135243400E+01 0.83088497525E+01 0.79439922896E+01 0.75422146660E+01
 0.71249968245E+01 0.67095585909E+01 0.63081335509E+01 0.59288636696E+01 0.55776055225E+01
 0.52596746317E+01 0.49807401115E+01 0.47466254791E+01 0.45623617059E+01 0.44311689373E+01
 0.43540126934E+01 0.43300566836E+01 0.43578381657E+01 0.43581676291E+01 0.43828929146E+01
 0.44577418034E+01 0.45841146607E+01 0.47626549450E+01 0.49917241848E+01 0.52666441855E+01
 0.55800795082E+01 0.59233493016E+01 0.62879546574E+01 0.66664167215E+01 0.70518287319E+01
 0.74362462501E+01 0.78087515530E+01 0.81542884012E+01 0.84540669658E+01 0.86877120198E+01
 0.88366675643E+01 0.88878868627E+01 0.88366671835E+01 0.86877116519E+01 0.84540669327E+01
 0.81542887325E+01 0.78087520186E+01 0.74362463306E+01 0.70518280252E+01 0.66664158193E+01
 0.62879549172E+01 0.59233509648E+01 0.55800807717E+01 0.52666432803E+01 0.49917218752E+01
 0.47626537025E+01 0.45841156451E+01 0.44577438739E+01 0.43828943659E+01 0.44365234606E+01
 0.43578396554E+01 0.43300562471E+01 0.43540104230E+01 0.44311670136E+01 0.45623620359E+01
 0.47466274054E+01 0.49807414273E+01 0.52596742878E+01 0.55776043676E+01 0.59288629809E+01
 0.63081337710E+01 0.67095592864E+01 0.71249972161E+01 0.75422143344E+01 0.79439916665E+01
 0.83088496217E+01 0.86135247815E+01 0.88366675643E+01 0.89627177170E+01 0.89847609707E+01
 0.89054676865E+01 0.87358556771E+01 0.84923387696E+01 0.81930453460E+01 0.78545630274E+01
 0.74900705666E+01 0.71093098564E+01 0.67201303807E+01 0.63306373020E+01 0.59506795428E+01
 0.55918134711E+01 0.52657994118E+01 0.49825252136E+01 0.47484736308E+01 0.45664393406E+01
 0.46764489040E+01 0.44891320889E+01 0.43570077361E+01 0.42799804588E+01 0.42586538709E+01
 0.42940359466E+01 0.43867067934E+01 0.45360973063E+01 0.47403146293E+01 0.49965295057E+01
 0.53015891335E+01 0.56523541823E+01 0.60453063911E+01 0.64752597577E+01 0.69334773190E+01
 0.74059387449E+01 0.78726740312E+01 0.83088496217E+01 0.86877120198E+01 0.89847611025E+01
 0.91819530259E+01 0.92706143596E+01 0.92521690438E+01 0.91365415328E+01 0.89388637564E+01
 0.86756082489E+01 0.83613881365E+01 0.80074120499E+01 0.76219893244E+01 0.72126404100E+01
 0.67885810187E+01 0.63621120808E+01 0.59480657053E+01 0.55616156983E+01 0.52156637117E+01
 0.49190814553E+01 0.50902919675E+01 0.47841179382E+01 0.45391697243E+01 0.43560611084E+01
 0.42345795564E+01 0.41745857898E+01 0.41761804643E+01 0.42394398825E+01 0.43641474127E+01
 0.45497672352E+01 0.47956166826E+01 0.51009846250E+01 0.54648648450E+01 0.58850262825E+01
 0.63563649096E+01 0.68688690903E+01 0.74059387449E+01 0.79439916665E+01 0.84540669658E+01
 0.89054678698E+01 0.92706140784E+01 0.95296421655E+01 0.96732734682E+01 0.97030838037E+01
 0.96292318098E+01 0.94665248531E+01 0.92301720850E+01 0.89326230818E+01 0.85825196180E+01
 0.81860201414E+01 0.77497418298E+01 0.72837278780E+01 0.68027638308E+01 0.63252698742E+01
 0.58703776634E+01 0.54547123705E+01 0.56916105977E+01 0.52562712922E+01 0.48859521613E+01
 0.45853261693E+01 0.43554426064E+01 0.41954628808E+01 0.41040243772E+01 0.40800518604E+01
 0.41231025723E+01 0.42334433482E+01 0.44119965704E+01 0.46601560859E+01 0.49793596256E+01
 0.53702394766E+01 0.58311901077E+01 0.63563649096E+01 0.69334773190E+01 0.75422143344E+01
 0.81542884012E+01 0.87358560099E+01 0.92521690092E+01 0.96732727237E+01 0.99789381124E+01
 0.10161202739E+02 0.10223747949E+02 0.10178175629E+02 0.10040346138E+02 0.98247482830E+01
 0.95401053149E+01 0.91909345535E+01 0.87804105346E+01 0.83134262147E+01 0.78005124151E+01
 0.72590683724E+01 0.67116198307E+01 0.61820493749E+01 0.64858343725E+01 0.59180157579E+01
 0.54112798607E+01 0.49787010960E+01 0.46264282398E+01 0.43554414344E+01 0.41637430404E+01
 0.40484160268E+01 0.40071739358E+01 0.40392418771E+01 0.41456026194E+01 0.43287416072E+01
 0.45920083534E+01 0.49386205936E+01 0.53702394766E+01 0.58850262825E+01 0.64752597577E+01
 0.71249972161E+01 0.78087515530E+01 0.84923388198E+01 0.91365422489E+01 0.97030835727E+01
 0.10161201561E+02 0.10491997048E+02 0.10685768959E+02 0.10750804572E+02 0.10710655555E+02
 0.10589568167E+02 0.10400726972E+02 0.10142632515E+02 0.98052613359E+01 0.93831496749E+01
 0.88844889409E+01 0.83219922455E+01 0.77160653339E+01 0.70941342041E+01 0.74593329904E+01
 0.67707687017E+01 0.61257482115E+01 0.55499120388E+01 0.50593904213E+01 0.46613324802E+01
 0.43560578513E+01 0.41399785110E+01 0.40085108150E+01 0.39583418301E+01 0.39886841025E+01
 0.41014975883E+01 0.43008989835E+01 0.45920083534E+01 0.49793596256E+01 0.54648648450E+01
 0.60453063911E+01 0.67095592864E+01 0.74362462501E+01 0.81930446506E+01 0.89388642054E+01
 0.96292329199E+01 0.10223747538E+02 0.10685767417E+02 0.10985634577E+02 0.11129327720E+02
 0.11151978366E+02 0.11097905992E+02 0.10999292672E+02 0.10862257060E+02 0.10666250863E+02
 0.10377229829E+02 0.99690633315E+01 0.94437114639E+01 0.88307367343E+01 0.81581469348E+01
 0.85698926421E+01 0.77939965607E+01 0.70263411735E+01 0.63072085902E+01 0.56672947263E+01
 0.51253531268E+01 0.46888884914E+01 0.43570030912E+01 0.41242737576E+01 0.39845640827E+01
 0.39338800601E+01 0.39717981265E+01 0.41014975883E+01 0.43287416072E+01 0.46601560859E+01
 0.51009846250E+01 0.56523541823E+01 0.63081337710E+01 0.70518287319E+01 0.78545623654E+01
 0.86756072933E+01 0.94665256990E+01 0.10178177049E+02 0.10750803960E+02 0.11129325937E+02
 0.11309613763E+02 0.11336227697E+02 0.11280614477E+02 0.11210351150E+02 0.11161051202E+02
 0.11122076018E+02 0.11042094192E+02 0.10852526161E+02 0.10499513404E+02 0.99714731285E+01
 0.93097325418E+01 0.97431916696E+01 0.89368809949E+01 0.80859003455E+01 0.72430602442E+01
 0.64557335138E+01 0.57592590643E+01 0.51743001804E+01 0.47080072961E+01 0.43578345480E+01
 0.41164928568E+01 0.39765891754E+01 0.39338800601E+01 0.39886841025E+01 0.41456026194E+01
 0.44119965704E+01 0.47956166826E+01 0.53015891335E+01 0.59288629809E+01 0.66664167215E+01
 0.74900712534E+01 0.83613868663E+01 0.92301709858E+01 0.10040347374E+02 0.10710657089E+02
 0.11151977542E+02 0.11336225922E+02 0.11306320905E+02 0.11158951601E+02 0.11008436671E+02
 0.10943800696E+02 0.10994829027E+02 0.11120535728E+02 0.11225020181E+02 0.11194684670E+02
 0.10942482273E+02 0.10442640471E+02 0.10837660254E+02 0.10116576626E+02 0.92463821589E+01
 0.83244332440E+01 0.74129099652E+01 0.65658755450E+01 0.58224979317E+01 0.52044399468E+01
 0.47178131689E+01 0.43581629482E+01 0.41164928568E+01 0.39845640827E+01 0.39583418301E+01
 0.40392418771E+01 0.42334433482E+01 0.45497672352E+01 0.49965295057E+01 0.55776043676E+01
 0.62879546574E+01 0.71093114487E+01 0.80074125571E+01 0.89326213068E+01 0.98247473130E+01
 0.10589569710E+02 0.11097907325E+02 0.11280613544E+02 0.11158950275E+02 0.10840097727E+02
 0.10483850261E+02 0.10249481929E+02 0.10240180331E+02 0.10465641085E+02 0.10837848475E+02
 0.11202060769E+02 0.11390987642E+02 0.11282007287E+02 0.11518616708E+02 0.11147457089E+02
 0.10416369958E+02 0.94878685447E+01 0.85010453875E+01 0.75296713804E+01 0.66336080291E+01
 0.58547090380E+01 0.52146195541E+01 0.47178131689E+01 0.43578345480E+01 0.41242737576E+01
 0.40085108150E+01 0.40071739358E+01 0.41231025723E+01 0.43641474127E+01 0.47403146293E+01
 0.52596742878E+01 0.59233493016E+01 0.67201307172E+01 0.76219913512E+01 0.85825196934E+01
 0.95401033237E+01 0.10400726463E+02 0.10999294249E+02 0.11210351897E+02 0.11008435912E+02
 0.10483849960E+02 0.98229281191E+01 0.92550551516E+01 0.89805082173E+01 0.91032348329E+01
 0.95942000618E+01 0.10300300481E+02 0.10995387830E+02 0.11453574947E+02 0.11415768128E+02
 0.11666394072E+02 0.11371713739E+02 0.10634032383E+02 0.96533258329E+01 0.86095186054E+01
 0.75891184228E+01 0.66564626275E+01 0.58547090380E+01 0.52044399468E+01 0.47080072961E+01
 0.43570030912E+01 0.41399785110E+01 0.40484160268E+01 0.40800518604E+01 0.42394398825E+01
 0.45360973063E+01 0.49807414273E+01 0.55800795082E+01 0.63306355316E+01 0.72126414169E+01
 0.81860220915E+01 0.91909340095E+01 0.10142630797E+02 0.10862257239E+02 0.11161052304E+02
 0.10943800503E+02 0.10249481752E+02 0.92550563645E+01 0.82364938897E+01 0.74928186670E+01
 0.72541733061E+01 0.76060019542E+01 0.84592428166E+01 0.95788580413E+01 0.10658977966E+02
 0.10269185465E+02 0.11324200927E+02 0.11747360127E+02 0.11515505166E+02 0.10765531394E+02
 0.97373928856E+01 0.86460947638E+01 0.75891184228E+01 0.66336080291E+01 0.58224979317E+01
 0.51743001804E+01 0.46888884914E+01 0.43560578513E+01 0.41637430404E+01 0.41040243772E+01
 0.41761804643E+01 0.43867067934E+01 0.47466274054E+01 0.52666441855E+01 0.59506775945E+01
 0.67885797328E+01 0.77497433590E+01 0.87804117832E+01 0.98052602399E+01 0.10666250026E+02
 0.11122076870E+02 0.10994829037E+02 0.10240179024E+02 0.89805089585E+01 0.74928214846E+01
 0.61465576589E+01 0.53023161177E+01 0.52015102574E+01 0.58874730743E+01 0.71900112095E+01
 0.87796574660E+01 0.80272908327E+01 0.99106054704E+01 0.11228216323E+02 0.11784448382E+02
 0.11585272682E+02 0.10809458045E+02 0.97373928856E+01 0.86095186054E+01 0.75296713804E+01
 0.65658755450E+01 0.57592590643E+01 0.51253531268E+01 0.46613324802E+01 0.43554414344E+01
 0.41954628808E+01 0.41745857898E+01 0.42940359466E+01 0.45623620359E+01 0.49917241848E+01
 0.55918135506E+01 0.63621100003E+01 0.72837276055E+01 0.83134278279E+01 0.93831497147E+01
 0.10377228579E+02 0.11042094764E+02 0.11120536983E+02 0.10465639578E+02 0.91032325480E+01
 0.72541749834E+01 0.53023200046E+01 0.37056763393E+01 0.28693795975E+01 0.30211704756E+01
 0.41372099501E+01 0.59488933369E+01 0.49062964867E+01 0.74434327326E+01 0.96597440214E+01
 0.11168683794E+02 0.11794717284E+02 0.11585272682E+02 0.10765531394E+02 0.96533258329E+01
 0.85010453875E+01 0.74129099652E+01 0.64557335138E+01 0.56672947263E+01 0.50593904213E+01
 0.46264282398E+01 0.43554426064E+01 0.42345795564E+01 0.42586538709E+01 0.44311670136E+01
 0.47626549450E+01 0.52658012967E+01 0.59480648049E+01 0.68027623451E+01 0.78005133454E+01
 0.88844899923E+01 0.99690619897E+01 0.10852525352E+02 0.11225022346E+02 0.10837849733E+02
 0.95941971395E+01 0.76059991808E+01 0.52015124357E+01 0.28693834397E+01 0.11412047110E+01
 0.44125052263E+00 0.95502646962E+00 0.25689557270E+01 0.13870759686E+01 0.42119639677E+01
 0.71247625920E+01 0.95697799471E+01 0.11168683794E+02 0.11784448382E+02 0.11515505166E+02
 0.10634032383E+02 0.94878685447E+01 0.83244332440E+01 0.72430602442E+01 0.63072085902E+01
 0.55499120388E+01 0.49787010960E+01 0.45853261693E+01 0.43560611084E+01 0.42799804588E+01
 0.43540104230E+01 0.45841146607E+01 0.49825270026E+01 0.55616164075E+01 0.63252682541E+01
 0.72590681219E+01 0.83219940984E+01 0.94437113535E+01 0.10499510942E+02 0.11194684774E+02
 0.11202064164E+02 0.10300301403E+02 0.84592392491E+01 0.58874705496E+01 0.30211723672E+01
 0.44125300406E+00 -.12720150306E+01 -.17065316295E+01 -.74712067667E+00 -.18677568833E+01
 0.75203098554E+00 0.39683789662E+01 0.71247625920E+01 0.96597440214E+01 0.11228216323E+02
 0.11747360127E+02 0.11371713739E+02 0.10416369958E+02 0.92463821589E+01 0.80859003455E+01
 0.70263411735E+01 0.61257482115E+01 0.54112798607E+01 0.48859521613E+01 0.45391697243E+01
 0.43570077361E+01 0.43300562471E+01 0.44577418034E+01 0.47484740335E+01 0.52156653949E+01
 0.58703768398E+01 0.67116181129E+01 0.77160665968E+01 0.88307388722E+01 0.99714716315E+01
 0.10942479318E+02 0.11390988694E+02 0.10995391545E+02 0.95788585074E+01 0.71900082419E+01
 0.41372084195E+01 0.95502726297E+00 -.17065314570E+01 -.32512175568E+01 -.33122496604E+01
 -.41712373011E+01 -.22588013900E+01 0.75203098554E+00 0.42119639677E+01 0.74434327326E+01
 0.99106054704E+01 0.11324200927E+02 0.11666394072E+02 0.11147457089E+02 0.10116576626E+02
 0.89368809949E+01 0.77939965607E+01 0.67707687017E+01 0.59180157579E+01 0.52562712922E+01
 0.47841179382E+01 0.44891320889E+01 0.43578396554E+01 0.43828929146E+01 0.45664382726E+01
 0.49190831496E+01 0.54547132608E+01 0.61820472297E+01 0.70941330978E+01 0.81581494601E+01
 0.93097342747E+01 0.10442637965E+02 0.11282004632E+02 0.11453576433E+02 0.10658980801E+02
 0.87796575883E+01 0.59488921847E+01 0.25689556542E+01 -.74712141123E+00 -.33122518940E+01
 -.45507623419E+01 -.41712635735E+01 -.35775289768E+01 -.15493415126E+01 0.14540133970E+01
 0.47903380365E+01 0.78151740855E+01 0.10038988295E+02 0.11218661581E+02 0.11372825659E+02
 0.10733336184E+02 0.96541627039E+01 0.84760157161E+01 0.73527608594E+01 0.63610428117E+01
 0.55456247241E+01 0.49218673599E+01 0.44849420967E+01 0.42209473868E+01 0.41164975214E+01
 0.41652759001E+01 0.43707615005E+01 0.47446779666E+01 0.53014167330E+01 0.60492356195E+01
 0.69794709170E+01 0.80564169227E+01 0.92124287407E+01 0.10331178953E+02 0.11117606182E+02
 0.11205275278E+02 0.10319638434E+02 0.83768279282E+01 0.55465715222E+01 0.22567698016E+01
 -.87699082569E+00 -.31943699628E+01 -.35775323976E+01 -.41712739603E+01 -.31943805819E+01
 -.87699308480E+00 0.22567669807E+01 0.55465572104E+01 0.83768149555E+01 0.10319645482E+02
 0.11205293125E+02 0.11117611949E+02 0.10331174135E+02 0.92124313844E+01 0.80564255796E+01
 0.69794700085E+01 0.60492286550E+01 0.53014199965E+01 0.47446875528E+01 0.43707601974E+01
 0.41652669467E+01 0.41164982937E+01 0.42209553033E+01 0.44849400884E+01 0.49218577506E+01
 0.55456242989E+01 0.63610492882E+01 0.73527576238E+01 0.84760051030E+01 0.96541609573E+01
 0.10733339553E+02 0.11372815662E+02 0.11218641591E+02 0.10038981586E+02 0.78151860254E+01
 0.47903506714E+01 0.14540165580E+01 -.15493421792E+01 -.14780085130E+01 -.31188003345E+01
 -.33122861433E+01 -.20206866206E+01 0.44688211022E+00 0.35310933292E+01 0.65884634316E+01
 0.90629155204E+01 0.10607786536E+02 0.11133347118E+02 0.10784057084E+02 0.98646295615E+01
 0.87329319158E+01 0.76127562092E+01 0.65945641977E+01 0.57352527892E+01 0.50610819971E+01
 0.45745355050E+01 0.42648051218E+01 0.41178841017E+01 0.41242786447E+01 0.42834174891E+01
 0.46040842793E+01 0.51006924356E+01 0.57858752729E+01 0.66603324192E+01 0.77019236025E+01
 0.88579435584E+01 0.10043938212E+02 0.11065454002E+02 0.11565991209E+02 0.11218460853E+02
 0.98416678286E+01 0.74804157520E+01 0.44373226060E+01 0.12378358347E+01 0.16416422797E+01
 -.67118320260E+00 -.18782558390E+01 -.17065585208E+01 -.21027445629E+00 0.22460204555E+01
 0.51010224957E+01 0.77610182387E+01 0.97535612781E+01 0.10824594033E+02 0.10963461832E+02
 0.10364893225E+02 0.93477543959E+01 0.82298711182E+01 0.71592136305E+01 0.62106223984E+01
 0.54292019688E+01 0.48320668955E+01 0.44165244621E+01 0.41702632648E+01 0.40803974807E+01
 0.41399816703E+01 0.43512356333E+01 0.47249058795E+01 0.52757002594E+01 0.60142804249E+01
 0.69368845361E+01 0.80150499426E+01 0.91897019407E+01 0.10368862966E+02 0.11327434996E+02
 0.11715885237E+02 0.11244366248E+02 0.97849182047E+01 0.74378563005E+01 0.45458856498E+01
 0.51046043702E+01 0.26115083922E+01 0.76442214208E+00 -.16509452524E-01 0.44123804078E+00
 0.20075151610E+01 0.42909350518E+01 0.67605954688E+01 0.88993117312E+01 0.10333468402E+02
 0.10904118309E+02 0.10671776140E+02 0.98666650713E+01 0.88027832093E+01 0.77183341515E+01
 0.67100973022E+01 0.58397171981E+01 0.51404172371E+01 0.46211473864E+01 0.42753029244E+01
 0.40900963875E+01 0.40543462088E+01 0.41637434251E+01 0.44229511098E+01 0.48440636470E+01
 0.54414067100E+01 0.62231549009E+01 0.71810622926E+01 0.82812142871E+01 0.94600800146E+01
 0.10619815442E+02 0.11521046638E+02 0.11836925699E+02 0.11320800575E+02 0.98952346116E+01
 0.77030796362E+01 0.82389095188E+01 0.60346201128E+01 0.40163320654E+01 0.26428662382E+01
 0.22335536384E+01 0.28693806938E+01 0.43669573754E+01 0.63376917144E+01 0.83084413498E+01
 0.98563541716E+01 0.10712049605E+02 0.10806010578E+02 0.10256462150E+02 0.93115164538E+01
 0.82490194353E+01 0.72138493393E+01 0.62791641222E+01 0.54928473282E+01 0.48770816691E+01
 0.44341284471E+01 0.41548324933E+01 0.40268229086E+01 0.40409709937E+01 0.41954600406E+01
 0.44969065489E+01 0.49581173589E+01 0.55924446901E+01 0.64052547985E+01 0.73841023955E+01
 0.84908123076E+01 0.96594459044E+01 0.10790115371E+02 0.11646405513E+02 0.11933970433E+02
 0.11450774079E+02 0.10162665197E+02 0.10542671802E+02 0.89626658504E+01 0.72044019838E+01
 0.56714035312E+01 0.47313051243E+01 0.46061669953E+01 0.53023258376E+01 0.66088318084E+01
 0.81663519768E+01 0.95788406595E+01 0.10525573504E+02 0.10837705762E+02 0.10522855301E+02
 0.97396792924E+01 0.87342687062E+01 0.77030379051E+01 0.67317321405E+01 0.58789895186E+01
 0.51794771900E+01 0.46459292742E+01 0.42756441457E+01 0.40581948534E+01 0.39822941880E+01
 0.40409695270E+01 0.42345742327E+01 0.45711220638E+01 0.50635261896E+01 0.57236767309E+01
 0.65540011640E+01 0.75384018876E+01 0.86358403970E+01 0.97800043937E+01 0.10874173788E+02
 0.11699767063E+02 0.11999932346E+02 0.11614647451E+02 0.11774173047E+02 0.10965031548E+02
 0.97617864651E+01 0.84533356817E+01 0.73700677585E+01 0.67883576994E+01 0.68448883096E+01
 0.74928308988E+01 0.85183898237E+01 0.96116745127E+01 0.10463747226E+02 0.10854402984E+02
 0.10704244940E+02 0.10081050538E+02 0.91646421690E+01 0.81627974892E+01 0.71819312928E+01
 0.62863280301E+01 0.55204398142E+01 0.49072620525E+01 0.44521213785E+01 0.41490739047E+01
 0.39874803536E+01 0.39575435596E+01 0.40543428743E+01 0.42799746923E+01 0.46432843716E+01
 0.51567335174E+01 0.58303645043E+01 0.66637154526E+01 0.76377937780E+01 0.87101972665E+01
 0.98161543923E+01 0.10866992117E+02 0.11673279480E+02 0.12016882318E+02 0.11960332480E+02
 0.11880761094E+02 0.11347621101E+02 0.10514244062E+02 0.96190025076E+01 0.89168582782E+01
 0.86007484467E+01 0.87393425096E+01 0.92550653513E+01 0.99517988560E+01 0.10581371304E+02
 0.10922980831E+02 0.10847639411E+02 0.10349035541E+02 0.95354355228E+01 0.85832600852E+01
 0.76168290669E+01 0.67023213111E+01 0.58903069931E+01 0.52123528204E+01 0.46819940501E+01
 0.42992982692E+01 0.40565911247E+01 0.39437935162E+01 0.39527655626E+01 0.40803947470E+01
 0.43300526276E+01 0.47108675745E+01 0.52343411444E+01 0.59083881763E+01 0.67298799502E+01
 0.76778463053E+01 0.87100361380E+01 0.97649384909E+01 0.10764773715E+02 0.11556810308E+02
 0.11341352251E+02 0.11805612182E+02 0.11886016675E+02 0.11612028235E+02 0.11109493001E+02
 0.10562748131E+02 0.10155859255E+02 0.10011673304E+02 0.10150395922E+02 0.10483856703E+02