unknown system                          
   1.00000000000000     
    -2.405778    2.405778    1.372833
     2.405778   -2.405778    1.372833
     2.405778    2.405778   -1.372833
   Si
     2
Direct
  0.000000  0.000000  0.000000
  0.250000  0.750000  0.500000
 
   36   36   36
 -5.4153     -4.4623     -1.8402      1.8202      5.6990      9.0279      11.279      12.254      12.074      11.089    
  9.7500      8.3906      7.1373      6.0633      5.2028      4.5598      4.1209      3.8675      3.7848      3.8675    
  4.1209      4.5598      5.2028      6.0633      7.1373      8.3906      9.7500      11.089      12.074      12.254    
  11.279      9.0279      5.6989      1.8201     -1.8402     -4.4623     -4.4623     -4.8912     -3.4719     -.56124    
  3.1455      6.8358      9.8088      11.636      12.218      11.751      10.622      9.2687      7.9441      6.7503    
  5.7481      4.9615      4.3880      4.0117      3.8147      3.7847      3.9197      4.2283      4.7270      5.4342    
  6.3598      7.4929      8.7893      10.166      11.462      12.290      12.213      10.934      8.4122      4.9356    
  1.1044     -2.2879     -1.8402     -3.4719     -3.3915     -1.6289      1.3690      4.8883      8.1701      10.616    
  11.912      12.059      11.312      10.077      8.7383      7.4664      6.3465      5.4260      4.7189      4.2174    
  3.9043      3.7630      3.7844      3.9698      4.3304      4.8839      5.6474      6.6267      7.8037      9.1259    
  10.502      11.737      12.419      12.148      10.687      8.0732      4.6667      1.1044      1.8201     -.56127    
 -1.6289     -1.1215     0.81665      3.6876      6.8056      9.5045      11.310      12.028      11.746      10.765    
  9.4791      8.1777      6.9749      5.9405      5.1082      4.4832      4.0535      3.8019      3.7141      3.7841    
  4.0162      4.4238      5.0248      5.8342      6.8535      8.0581      9.3886      10.749      11.915      12.485    
  12.103      10.597      8.0732      4.9356      5.6989      3.1455      1.3690     0.81665      1.6189      3.5473    
  6.0960      8.6474      10.655      11.776      11.931      11.277      10.134      8.8512      7.6067      6.4873    
  5.5463      4.8052      4.2615      3.9012      3.7076      3.6695      3.7839      4.0577      4.5054      5.1446    
  5.9877      7.0316      8.2465      9.5686      10.898      12.002      12.505      12.103      10.687      8.4122    
  9.0279      6.8357      4.8883      3.6876      3.5474      4.4881      6.2341      8.3107      10.198      11.481    
  11.945      11.607      10.674      9.4601      8.2151      7.0453      6.0198      5.1764      4.5257      4.0601    
  3.7645      3.6241      3.6306      3.7839      4.0928      4.5723      5.2387      6.1017      7.1543      8.3623    
  9.6600      10.948      12.002      12.485      12.148      10.934      11.279      9.8088      8.1701      6.8056    
  6.0960      6.2341      7.1608      8.5896      10.108      11.308      11.906      11.801      11.084      9.9875    
  8.7777      7.5931      6.5122      5.5869      4.8411      4.2771      3.8839      3.6467      3.5535      3.5985    
  3.7841      4.1204      4.6220      5.3036      6.1720      7.2168      8.4014      9.6600      10.898      11.915    
  12.419      12.213      12.254      11.636      10.616      9.5045      8.6474      8.3108      8.5896      9.3776    
  10.408      11.350      11.910      11.923      11.380      10.423      9.2781      8.1113      7.0061      6.0237    
  5.2002      4.5485      4.0646      3.7363      3.5504      3.4973      3.5739      3.7845      4.1394      4.6526    
  5.3367      6.1958      7.2168      8.3623      9.5686      10.749      11.737      12.290      12.074      12.218    
  11.912      11.310      10.655      10.198      10.108      10.408      10.977      11.588      11.997      12.020    
  11.588      10.762      9.7056      8.5845      7.4851      6.4729      5.5932      4.8687      4.3040      3.8918    
  3.6199      3.4771      3.4565      3.5574      3.7848      4.1491      4.6629      5.3367      6.1720      7.1543    
  8.2465      9.3886      10.502      11.462      11.089      11.751      12.059      12.028      11.776      11.481    
  11.308      11.350      11.588      11.904      12.128      12.098      11.722      11.006      10.052      9.0004    
  7.9349      6.9209      6.0091      5.2307      4.5985      4.1115      3.7610      3.5360      3.4278      3.4319    
  3.5490      3.7849      4.1491      4.6526      5.3036      6.1017      7.0316      8.0581      9.1259      10.166    
  9.7500      10.622      11.312      11.746      11.931      11.946      11.906      11.910      11.997      12.128    
  12.206      12.117      11.773      11.151      10.309      9.3483      8.3432      7.3553      6.4374      5.6266    
  4.9434      4.3936      3.9731      3.6733      3.4854      3.4030      3.4237      3.5490      3.7848      4.1394    
  4.6220      5.2387      5.9877      6.8535      7.8037      8.7893      8.3906      9.2687      10.077      10.765    
  11.277      11.607      11.801      11.923      12.020      12.098      12.117      12.008      11.706      11.182    
  10.463      9.6161      8.6981      7.7646      6.8678      6.0486      5.3338      4.7357      4.2561      3.8898    
  3.6294      3.4685      3.4030      3.4319      3.5574      3.7845      4.1204      4.5723      5.1446      5.8342    
  6.6267      7.4929      7.1373      7.9441      8.7384      9.4791      10.134      10.674      11.084      11.380    
  11.588      11.722      11.773      11.706      11.481      11.076      10.500      9.7899      8.9864      8.1369    
  7.2902      6.4891      5.7648      5.1361      4.6103      4.1871      3.8619      3.6294      3.4854      3.4278    
  3.4565      3.5739      3.7841      4.0928      4.5054      5.0248      5.6474      6.3598      6.0633      6.7503    
  7.4664      8.1777      8.8512      9.4601      9.9875      10.423      10.762      11.006      11.151      11.182    
  11.076      10.816      10.405      9.8547      9.1932      8.4582      7.6929      6.9390      6.2309      5.5923    
  5.0366      4.5684      4.1871      3.8898      3.6733      3.5360      3.4771      3.4973      3.5985      3.7839    
  4.0577      4.4238      4.8839      5.4342      5.2028      5.7481      6.3465      6.9749      7.6067      8.2151    
  8.7777      9.2781      9.7056      10.052      10.309      10.463      10.500      10.405      10.170      9.7978    
  9.3030      8.7125      8.0611      7.3866      6.7237      6.1001      5.5344      5.0366      4.6103      4.2561    
  3.9731      3.7610      3.6199      3.5504      3.5535      3.6306      3.7839      4.0162      4.3304      4.7270    
  4.5598      4.9615      5.4260      5.9405      6.4873      7.0453      7.5931      8.1113      8.5845      9.0004    
  9.3483      9.6161      9.7899      9.8547      9.7978      9.6128      9.3030      8.8830      8.3769      7.8154    
  7.2305      6.6512      6.1001      5.5923      5.1361      4.7357      4.3936      4.1115      3.8918      3.7363    
  3.6467      3.6241      3.6695      3.7841      3.9698      4.2283      4.1209      4.3880      4.7190      5.1082    
  5.5463      6.0198      6.5122      7.0061      7.4851      7.9349      8.3432      8.6981      8.9864      9.1932    
  9.3030      9.3030      9.1864      8.9551      8.6211      8.2048      7.7322      7.2305      6.7237      6.2309    
  5.7648      5.3338      4.9434      4.5985      4.3040      4.0646      3.8839      3.7645      3.7076      3.7141    
  3.7844      3.9197      3.8675      4.0117      4.2174      4.4832      4.8052      5.1764      5.5869      6.0237    
  6.4730      6.9209      7.3553      7.7646      8.1369      8.4582      8.7125      8.8830      8.9551      8.9197    
  8.7759      8.5322      8.2048      7.8154      7.3866      6.9390      6.4891      6.0486      5.6266      5.2307    
  4.8687      4.5485      4.2771      4.0601      3.9012      3.8019      3.7630      3.7847      3.7848      3.8147    
  3.9043      4.0535      4.2615      4.5257      4.8411      5.2002      5.5932      6.0091      6.4374      6.8678    
  7.2902      7.6929      8.0611      8.3769      8.6211      8.7759      8.8290      8.7759      8.6211      8.3769    
  8.0611      7.6929      7.2902      6.8678      6.4374      6.0091      5.5932      5.2002      4.8411      4.5257    
  4.2615      4.0535      3.9043      3.8147      3.8675      3.7847      3.7630      3.8019      3.9011      4.0601    
  4.2771      4.5485      4.8687      5.2307      5.6266      6.0486      6.4891      6.9390      7.3866      7.8154    
  8.2048      8.5322      8.7759      8.9197      8.9551      8.8830      8.7125      8.4582      8.1369      7.7646    
  7.3553      6.9209      6.4729      6.0237      5.5869      5.1764      4.8052      4.4832      4.2174      4.0117    
  4.1209      3.9197      3.7844      3.7141      3.7076      3.7644      3.8839      4.0646      4.3040      4.5985    
  4.9434      5.3338      5.7648      6.2309      6.7237      7.2305      7.7322      8.2048      8.6211      8.9551    
  9.1864      9.3030      9.3030      9.1932      8.9864      8.6981      8.3432      7.9349      7.4851      7.0061    
  6.5122      6.0198      5.5463      5.1082      4.7189      4.3880      4.5598      4.2282      3.9698      3.7841    
  3.6695      3.6241      3.6467      3.7363      3.8918      4.1115      4.3936      4.7358      5.1361      5.5923    
  6.1001      6.6512      7.2305      7.8154      8.3769      8.8830      9.3030      9.6128      9.7978      9.8547    
  9.7899      9.6161      9.3483      9.0004      8.5845      8.1113      7.5931      7.0453      6.4873      5.9405    
  5.4260      4.9615      5.2028      4.7270      4.3304      4.0162      3.7839      3.6306      3.5535      3.5504    
  3.6198      3.7610      3.9731      4.2561      4.6104      5.0366      5.5344      6.1001      6.7237      7.3866    
  8.0611      8.7125      9.3030      9.7978      10.170      10.405      10.500      10.463      10.309      10.052    
  9.7056      9.2781      8.7777      8.2151      7.6067      6.9749      6.3465      5.7481      6.0633      5.4342    
  4.8839      4.4238      4.0577      3.7839      3.5984      3.4972      3.4770      3.5360      3.6733      3.8898    
  4.1872      4.5684      5.0366      5.5923      6.2309      6.9390      7.6929      8.4582      9.1932      9.8547    
  10.405      10.816      11.076      11.182      11.151      11.006      10.762      10.423      9.9875      9.4601    
  8.8512      8.1777      7.4664      6.7503      7.1373      6.3598      5.6474      5.0248      4.5054      4.0928    
  3.7841      3.5739      3.4565      3.4277      3.4854      3.6294      3.8620      4.1872      4.6104      5.1361    
  5.7648      6.4891      7.2902      8.1369      8.9864      9.7899      10.500      11.076      11.481      11.706    
  11.773      11.722      11.588      11.380      11.084      10.674      10.134      9.4791      8.7383      7.9441    
  8.3906      7.4929      6.6266      5.8342      5.1446      4.5723      4.1203      3.7844      3.5573      3.4319    
  3.4030      3.4685      3.6294      3.8898      4.2561      4.7358      5.3338      6.0486      6.8678      7.7646    
  8.6981      9.6161      10.463      11.182      11.706      12.008      12.117      12.098      12.020      11.923    
  11.801      11.607      11.277      10.765      10.077      9.2687      9.7500      8.7893      7.8037      6.8535    
  5.9877      5.2387      4.6220      4.1394      3.7847      3.5490      3.4236      3.4030      3.4854      3.6733    
  3.9731      4.3936      4.9434      5.6266      6.4374      7.3553      8.3432      9.3483      10.309      11.151    
  11.773      12.117      12.206      12.128      11.997      11.910      11.906      11.945      11.931      11.746    
  11.312      10.622      11.089      10.166      9.1259      8.0581      7.0316      6.1018      5.3036      4.6526    
  4.1491      3.7849      3.5490      3.4319      3.4277      3.5360      3.7610      4.1115      4.5985      5.2307    
  6.0091      6.9209      7.9349      9.0004      10.052      11.006      11.722      12.098      12.128      11.904    
  11.588      11.350      11.308      11.481      11.776      12.028      12.059      11.751      12.074      11.462    
  10.502      9.3887      8.2466      7.1543      6.1721      5.3367      4.6629      4.1491      3.7847      3.5573    
  3.4565      3.4770      3.6198      3.8918      4.3040      4.8687      5.5932      6.4730      7.4851      8.5845    
  9.7056      10.762      11.588      12.020      11.997      11.588      10.977      10.408      10.108      10.198    
  10.655      11.310      11.912      12.218      12.254      12.290      11.737      10.749      9.5686      8.3624    
  7.2168      6.1958      5.3367      4.6526      4.1394      3.7844      3.5739      3.4972      3.5504      3.7363    
  4.0646      4.5485      5.2002      6.0237      7.0061      8.1113      9.2781      10.423      11.380      11.923    
  11.910      11.350      10.408      9.3776      8.5896      8.3107      8.6474      9.5045      10.616      11.636    
  11.279      12.213      12.419      11.915      10.898      9.6600      8.4014      7.2168      6.1721      5.3036    
  4.6220      4.1203      3.7841      3.5984      3.5535      3.6467      3.8839      4.2771      4.8411      5.5869    
  6.5122      7.5931      8.7777      9.9875      11.084      11.801      11.906      11.308      10.108      8.5896    
  7.1608      6.2341      6.0960      6.8056      8.1701      9.8088      9.0279      10.934      12.148      12.485    
  12.002      10.948      9.6600      8.3624      7.1543      6.1018      5.2387      4.5723      4.0928      3.7839    
  3.6306      3.6241      3.7644      4.0601      4.5257      5.1764      6.0198      7.0453      8.2151      9.4601    
  10.674      11.607      11.946      11.481      10.198      8.3108      6.2341      4.4881      3.5473      3.6876    
  4.8883      6.8358      5.6990      8.4122      10.687      12.103      12.505      12.002      10.898      9.5686    
  8.2466      7.0316      5.9877      5.1446      4.5054      4.0577      3.7839      3.6695      3.7076      3.9011    
  4.2615      4.8052      5.5463      6.4873      7.6067      8.8512      10.134      11.277      11.931      11.776    
  10.655      8.6474      6.0960      3.5474      1.6189     0.81665      1.3690      3.1455      1.8202      4.9356    
  8.0733      10.597      12.103      12.485      11.915      10.749      9.3887      8.0581      6.8535      5.8342    
  5.0248      4.4238      4.0162      3.7841      3.7141      3.8019      4.0535      4.4832      5.1082      5.9405    
  6.9749      8.1777      9.4791      10.765      11.746      12.028      11.310      9.5045      6.8056      3.6876    
 0.81665     -1.1215     -1.6289     -.56124     -1.8402      1.1044      4.6668      8.0733      10.687      12.148    
  12.419      11.737      10.502      9.1259      7.8037      6.6266      5.6474      4.8839      4.3304      3.9698    
  3.7844      3.7630      3.9043      4.2174      4.7190      5.4260      6.3465      7.4664      8.7384      10.077    
  11.312      12.059      11.912      10.616      8.1701      4.8883      1.3690     -1.6289     -3.3915     -3.4719    
 -4.4623     -2.2878      1.1044      4.9356      8.4122      10.934      12.213      12.290      11.462      10.166    
  8.7893      7.4929      6.3598      5.4342      4.7270      4.2282      3.9197      3.7847      3.8147      4.0117    
  4.3880      4.9615      5.7481      6.7503      7.9441      9.2687      10.622      11.751      12.218      11.636    
  9.8088      6.8357      3.1455     -.56127     -3.4719     -4.8912     -4.4623     -3.7870     -1.4881      1.8800    
  5.5528      8.7816      11.024      12.046      11.927      10.987      9.6610      8.2969      7.0307      5.9386    
  5.0577      4.3937      3.9332      3.6570      3.5490      3.6019      3.8195      4.2154      4.8085      5.6146    
  6.6349      7.8422      9.1717      10.514      11.590      11.963      11.270      9.3576      6.3708      2.7735    
 -.72685     -3.3490     -3.7870     -4.4623     -3.3490     -.72686      2.7735      6.3708      9.3576      11.270    
  11.963      11.590      10.514      9.1717      7.8422      6.6349      5.6146      4.8085      4.2154      3.8195    
  3.6019      3.5490      3.6570      3.9332      4.3937      5.0577      5.9386      7.0307      8.2969      9.6610    
  10.987      11.927      12.046      11.024      8.7816      5.5528      1.8800     -1.4881     -1.4006     -3.2559    
 -3.4719     -2.0045     0.77179      4.1881      7.4907      10.050      11.504      11.801      11.161      9.9732    
  8.6412      7.3626      6.2281      5.2897      4.5643      4.0451      3.7147      3.5556      3.5573      3.7195    
  4.0526      4.5745      5.3040      6.2506      7.4018      8.7112      10.094      11.381      12.186      12.097    
  10.850      8.4399      5.1746      1.6449      2.1075     -.47513     -1.8296     -1.6289     0.58903E-01  2.7948    
  5.9142      8.7315      10.724      11.641      11.522      10.639      9.3850      8.0864      6.8743      5.8242    
  4.9745      4.3328      3.8878      3.6218      3.5196      3.5739      3.7879      4.1744      4.7523      5.5389    
  6.5396      7.7349      9.0707      10.456      11.692      12.384      12.158      10.812      8.4075      5.3045    
  5.9279      3.2020      1.1582     0.29532     0.81662      2.5625      5.0663      7.7085      9.9034      11.251    
  11.614      11.109      10.040      8.7722      7.5253      6.3936      5.4363      4.6787      4.1205      3.7477    
  3.5434      3.4949      3.5985      3.8603      4.2949      4.9212      5.7543      6.7950      8.0179      9.3631    
  10.736      11.919      12.535      12.256      10.939      8.7015      9.2780      6.9507      4.7707      3.2741    
  2.8360      3.5473      5.1866      7.2973      9.3378      10.842      11.537      11.386      10.568      9.3938    
  8.1539      6.9760      5.9357      5.0759      4.4104      3.9330      3.6284      3.4814      3.4823      3.6306    
  3.9347      4.4103      5.0753      5.9422      7.0074      8.2403      9.5779      10.924      12.062      12.642    
  12.391      11.220      11.602      10.041      8.2180      6.5937      5.5935      5.4732      6.2341      7.6257    
  9.2340      10.617      11.436      11.534      10.963      9.9348      8.7378      7.5496      6.4557      5.5139    
  4.7527      4.1763      3.7747      3.5327      3.4374      3.4823      3.6695      4.0090      4.5167      5.2091    
  6.0956      7.1684      8.3935      9.7066      11.014      12.114      12.699      12.544      12.671      12.007    
  10.860      9.5428      8.4282      7.8316      7.9056      8.5896      9.6353      10.695      11.436      11.639    
  11.251      10.383      9.2620      8.0948      6.9783      5.9794      5.1394      4.4741      3.9811      3.6485    
  3.4623      3.4123      3.4949      3.7141      4.0809      4.6106      5.3176      6.2082      7.2714      8.4710    
  9.7435      11.001      12.069      12.685      12.576      12.720      12.345      11.599      10.740      10.050    
  9.7440      9.8947      10.408      11.063      11.591      11.766      11.474      10.742      9.7176      8.5966    
  7.4866      6.4577      5.5600      4.8204      4.2453      3.8281      3.5564      3.4184      3.4066      3.5197    
  3.7631      4.1479      4.6883      5.3964      6.2755      7.3119      8.4690      9.6854      10.880      11.916    
  11.648      12.348      12.641      12.531      12.138      11.656      11.286      11.160      11.294      11.588    
  11.861      11.927      11.656      11.019      10.097      9.0430      7.9656      6.9339      6.0027      5.2072    
  4.5629      4.0697      3.7190      3.4994      3.4014      3.4200      3.5557      3.8147      4.2077      4.7470    
  5.4424      6.2943      7.2876      8.3863      9.5328      10.654      10.328      11.266      11.986      12.400    
  12.506      12.393      12.195      12.041      12.001      12.061      12.128      12.074      11.787      11.216    
  10.393      9.4228      8.4021      7.3943      6.4551      5.6253      4.9281      4.3706      3.9491      3.6547    
  3.4777      3.4111      3.4519      3.6019      3.8675      4.2582      4.7845      5.4534      6.2636      7.1989    
  8.2251      9.2898      8.9645      9.9127      10.778      11.492      11.983      12.245      12.330      12.324    
  12.297      12.280      12.243      12.117      11.823      11.312      10.590      9.7227      8.7827      7.8257    
  6.9052      6.0650      5.3343      4.7271      4.2456      3.8844      3.6354      3.4912      3.4469      3.5013    
  3.6570      3.9197      4.2976      4.7991      5.4291      6.1843      7.0488      7.9911      7.6930      8.5690    
  9.4235      10.209      10.885      11.408      11.761      11.970      12.075      12.112      12.084      11.964    
  11.706      11.275      10.669      9.9264      9.0926      8.2143      7.3408      6.5165      5.7748      5.1357    
  4.6074      4.1892      3.8758      3.6609      3.5392      3.5081      3.5673      3.7195      3.9698      4.3247    
  4.7904      5.3701      6.0593      6.8430      6.5897      7.3426      8.1188      8.8790      9.5847      10.204    
  10.717      11.106      11.374      11.536      11.600      11.558      11.390      11.076      10.612      10.016    
  9.3148      8.5447      7.7487      6.9692      6.2420      5.5921      5.0334      4.5704      4.2018      3.9234    
  3.7308      3.6213      3.5935      3.6482      3.7878      4.0162      4.3384      4.7588      5.2788      5.8937    
  5.6941      6.2993      6.9543      7.6318      8.3003      8.9287      9.4911      9.9697      10.355      10.642    
  10.828      10.907      10.869      10.703      10.405      9.9762      9.4324      8.7997      8.1129      7.4099    
  6.7263      6.0906      5.5217      5.0296      4.6172      4.2837      4.0268      3.8446      3.7362      3.7019    
  3.7426      3.8602      4.0576      4.3384      4.7053      5.1588      5.0148      5.4685      5.9834      6.5435    
  7.1272      7.7097      8.2661      8.7748      9.2200      9.5910      9.8803      10.080      10.182      10.174    
  10.047      9.7978      9.4310      8.9619      8.4152      7.8219      7.2143      6.6220      6.0676      5.5661    
  5.1253      4.7479      4.4346      4.1855      4.0012      3.8827      3.8313      3.8481      3.9346      4.0927    
  4.3246      4.6321      4.5418      4.8524      5.2258      5.6544      6.1260      6.6240      7.1289      7.6210    
  8.0824      8.4990      8.8600      9.1561      9.3776      9.5133      9.5515      9.4827      9.3030      9.0166    
  8.6368      8.1850      7.6874      7.1714      6.6611      6.1753      5.7261      5.3204      4.9620      4.6538    
  4.3984      4.1991      4.0587      3.9793      3.9623      4.0090      4.1203      4.2976      4.2582      4.4378    
  4.6777      4.9751      5.3245      5.7169      6.1397      6.5780      7.0159      7.4392      7.8355      8.1947    
  8.5070      8.7614      8.9452      9.0452      9.0505      8.9551      8.7608      8.4775      8.1224      7.7173    
  7.2846      6.8445      6.4127      5.9998      5.6129      5.2575      4.9390      4.6631      4.4355      4.2609    
  4.1425      4.0821      4.0809      4.1393      4.1490      4.2077      4.3239      4.4971      4.7255      5.0052    
  5.3298      5.6898      6.0739      6.4700      6.8668      7.2543      7.6235      7.9644      8.2649      8.5107    
  8.6861      8.7775      8.7759      8.6793      8.4938      8.2322      7.9120      7.5517      7.1683      6.7753    
  6.3828      5.9986      5.6304      5.2865      4.9756      4.7062      4.4851      4.3167      4.2039      4.1479    
  4.2077      4.1490      4.1479      4.2039      4.3167      4.4851      4.7062      4.9756      5.2864      5.6304    
  5.9986      6.3828      6.7753      7.1683      7.5517      7.9120      8.2322      8.4938      8.6793      8.7759    
  8.7775      8.6861      8.5107      8.2649      7.9644      7.6235      7.2543      6.8668      6.4700      6.0739    
  5.6898      5.3298      5.0052      4.7255      4.4971      4.3239      4.4378      4.2582      4.1393      4.0809    
  4.0821      4.1425      4.2609      4.4355      4.6631      4.9390      5.2575      5.6129      5.9998      6.4127    
  6.8445      7.2846      7.7173      8.1224      8.4775      8.7608      8.9551      9.0505      9.0452      8.9452    
  8.7614      8.5070      8.1947      7.8355      7.4392      7.0159      6.5780      6.1397      5.7169      5.3246    
  4.9751      4.6777      4.8524      4.5418      4.2976      4.1203      4.0090      3.9623      3.9793      4.0587    
  4.1991      4.3984      4.6538      4.9620      5.3204      5.7261      6.1753      6.6611      7.1714      7.6874    
  8.1850      8.6368      9.0166      9.3030      9.4827      9.5515      9.5133      9.3776      9.1561      8.8600    
  8.4990      8.0824      7.6210      7.1289      6.6240      6.1260      5.6544      5.2258      5.4685      5.0148    
  4.6321      4.3247      4.0928      3.9347      3.8481      3.8313      3.8827      4.0012      4.1855      4.4346    
  4.7479      5.1253      5.5661      6.0676      6.6220      7.2143      7.8219      8.4152      8.9619      9.4310    
  9.7978      10.047      10.174      10.182      10.080      9.8803      9.5910      9.2200      8.7748      8.2661    
  7.7097      7.1272      6.5435      5.9834      6.2993      5.6941      5.1588      4.7053      4.3384      4.0577    
  3.8602      3.7426      3.7019      3.7362      3.8446      4.0268      4.2837      4.6172      5.0296      5.5217    
  6.0906      6.7263      7.4099      8.1129      8.7997      9.4324      9.9762      10.405      10.703      10.869    
  10.907      10.828      10.642      10.355      9.9697      9.4911      8.9287      8.3003      7.6318      6.9543    
  7.3426      6.5897      5.8937      5.2788      4.7588      4.3384      4.0162      3.7879      3.6483      3.5935    
  3.6212      3.7308      3.9234      4.2018      4.5704      5.0334      5.5921      6.2420      6.9692      7.7487    
  8.5447      9.3148      10.016      10.612      11.076      11.390      11.558      11.600      11.536      11.374    
  11.106      10.717      10.204      9.5847      8.8790      8.1188      8.5690      7.6929      6.8430      6.0593    
  5.3701      4.7904      4.3247      3.9698      3.7195      3.5673      3.5080      3.5392      3.6609      3.8758    
  4.1892      4.6074      5.1357      5.7748      6.5166      7.3408      8.2143      9.0926      9.9264      10.669    
  11.275      11.706      11.964      12.084      12.112      12.075      11.969      11.761      11.408      10.885    
  10.209      9.4235      9.9127      8.9644      7.9910      7.0488      6.1843      5.4291      4.7991      4.2976    
  3.9197      3.6570      3.5013      3.4469      3.4911      3.6354      3.8844      4.2456      4.7272      5.3343    
  6.0650      6.9052      7.8257      8.7827      9.7227      10.590      11.312      11.823      12.117      12.243    
  12.280      12.297      12.324      12.330      12.245      11.983      11.492      10.778      11.266      10.328    
  9.2898      8.2251      7.1989      6.2636      5.4534      4.7845      4.2582      3.8675      3.6019      3.4518    
  3.4110      3.4777      3.6547      3.9491      4.3706      4.9281      5.6253      6.4551      7.3943      8.4021    
  9.4228      10.393      11.216      11.787      12.074      12.128      12.061      12.001      12.041      12.195    
  12.393      12.506      12.400      11.986      12.348      11.648      10.654      9.5328      8.3863      7.2876    
  6.2943      5.4424      4.7470      4.2077      3.8147      3.5556      3.4199      3.4014      3.4994      3.7190    
  4.0697      4.5629      5.2073      6.0027      6.9339      7.9656      9.0430      10.097      11.019      11.656    
  11.927      11.861      11.588      11.294      11.160      11.286      11.656      12.138      12.531      12.641    
  12.720      12.576      11.916      10.880      9.6854      8.4690      7.3119      6.2755      5.3964      4.6883    
  4.1479      3.7630      3.5196      3.4066      3.4184      3.5564      3.8281      4.2453      4.8204      5.5600    
  6.4577      7.4866      8.5966      9.7176      10.742      11.474      11.766      11.591      11.063      10.408    
  9.8947      9.7440      10.050      10.740      11.599      12.345      12.007      12.671      12.685      12.069    
  11.001      9.7435      8.4710      7.2714      6.2082      5.3176      4.6105      4.0809      3.7141      3.4949    
  3.4123      3.4623      3.6485      3.9811      4.4741      5.1394      5.9795      6.9783      8.0948      9.2620    
  10.383      11.251      11.639      11.436      10.695      9.6354      8.5896      7.9056      7.8317      8.4282    
  9.5428      10.860      10.041      11.602      12.544      12.699      12.114      11.014      9.7067      8.3935    
  7.1684      6.0956      5.2091      4.5167      4.0090      3.6695      3.4823      3.4374      3.5327      3.7747    
  4.1763      4.7527      5.5139      6.4557      7.5496      8.7378      9.9348      10.963      11.534      11.436    
  10.617      9.2341      7.6257      6.2342      5.4733      5.5936      6.5938      8.2180      6.9508      9.2780    