unknown system                          
   1.00000000000000     
    -2.405778    2.405778    1.372833
     2.405778   -2.405778    1.372833
     2.405778    2.405778   -1.372833
   Si
     2
Direct
  0.000000  0.000000  0.000000
  0.250000  0.750000  0.500000
 
   36   36   36
 -.54153366809E+01 -.44622637129E+01 -.18401870143E+01 0.18201570724E+01 0.56989703978E+01
 0.90279224303E+01 0.11279005984E+02 0.12254136215E+02 0.12073711091E+02 0.11088979184E+02
 0.97500311031E+01 0.83905650499E+01 0.71372989384E+01 0.60632513459E+01 0.52027542750E+01
 0.45597660587E+01 0.41208602285E+01 0.38674655646E+01 0.37848379909E+01 0.38674657765E+01
 0.41208712418E+01 0.45597878063E+01 0.52027742777E+01 0.60632653785E+01 0.71373128665E+01
 0.83905763764E+01 0.97500298061E+01 0.11088967831E+02 0.12073703439E+02 0.12254134698E+02
 0.11278999594E+02 0.90279062224E+01 0.56989485173E+01 0.18201286306E+01 -.18402235291E+01
 -.44622930781E+01 -.44622930781E+01 -.48911791412E+01 -.34718939355E+01 -.56124334864E+00
 0.31455110251E+01 0.68357529822E+01 0.98088089277E+01 0.11635934500E+02 0.12218270768E+02
 0.11751068590E+02 0.10622169589E+02 0.92687090520E+01 0.79440987289E+01 0.67503105816E+01
 0.57481072005E+01 0.49614969046E+01 0.43879921315E+01 0.40117098129E+01 0.38146838300E+01
 0.37847187426E+01 0.39196916543E+01 0.42282599153E+01 0.47270244960E+01 0.54342187291E+01
 0.63598475618E+01 0.74929373313E+01 0.87893243791E+01 0.10165819044E+02 0.11462093771E+02
 0.12289788932E+02 0.12213344431E+02 0.10934073028E+02 0.84121674425E+01 0.49355767805E+01
 0.11044026950E+01 -.22878622376E+01 -.18402235291E+01 -.34719158421E+01 -.33915313748E+01
 -.16288697410E+01 0.13690062189E+01 0.48882671928E+01 0.81701352146E+01 0.10615894742E+02
 0.11912277830E+02 0.12058855995E+02 0.11312457401E+02 0.10077119379E+02 0.87383386246E+01
 0.74663709112E+01 0.63464767277E+01 0.54259966639E+01 0.47189398838E+01 0.42174322132E+01
 0.39042756067E+01 0.37629959919E+01 0.37844200995E+01 0.39697808179E+01 0.43303804736E+01
 0.48839030405E+01 0.56473706843E+01 0.66266532986E+01 0.78037456250E+01 0.91259339763E+01
 0.10502379410E+02 0.11736681646E+02 0.12419374391E+02 0.12148121839E+02 0.10686712429E+02
 0.80732469392E+01 0.46667348015E+01 0.11044026950E+01 0.18201286306E+01 -.56126613133E+00
 -.16288797698E+01 -.11215009964E+01 0.81665159911E+00 0.36876213694E+01 0.68055922013E+01
 0.95045145627E+01 0.11309789157E+02 0.12027765509E+02 0.11746337675E+02 0.10764874125E+02
 0.94790949206E+01 0.81776704706E+01 0.69749189566E+01 0.59404949175E+01 0.51082235456E+01
 0.44831889096E+01 0.40535270107E+01 0.38019009311E+01 0.37140671393E+01 0.37840853785E+01
 0.40162456593E+01 0.44238371599E+01 0.50248129649E+01 0.58342300543E+01 0.68534722125E+01
 0.80580698341E+01 0.93886262619E+01 0.10748656221E+02 0.11915080130E+02 0.12485251210E+02
 0.12102828252E+02 0.10597050873E+02 0.80732469392E+01 0.49355767805E+01 0.56989485173E+01
 0.31454963699E+01 0.13690000292E+01 0.81665354952E+00 0.16188811779E+01 0.35473397255E+01
 0.60959752109E+01 0.86474245051E+01 0.10654859072E+02 0.11776285559E+02 0.11930627300E+02
 0.11276690203E+02 0.10133864860E+02 0.88511687175E+01 0.76066812186E+01 0.64872639959E+01
 0.55463356342E+01 0.48051581660E+01 0.42615322397E+01 0.39011580249E+01 0.37076399295E+01
 0.36694709870E+01 0.37838746541E+01 0.40576872235E+01 0.45054391817E+01 0.51445869426E+01
 0.59876650139E+01 0.70316070469E+01 0.82465336502E+01 0.95685801832E+01 0.10898206877E+02
 0.12002394953E+02 0.12505017368E+02 0.12102828252E+02 0.10686712429E+02 0.84121674425E+01
 0.90279062224E+01 0.68357444439E+01 0.48882660843E+01 0.36876291518E+01 0.35473502384E+01
 0.44880886266E+01 0.62341321594E+01 0.83107382371E+01 0.10198161302E+02 0.11480957606E+02
 0.11945489454E+02 0.11607341338E+02 0.10674056166E+02 0.94601401444E+01 0.82151301401E+01
 0.70453118975E+01 0.60198011489E+01 0.51764391456E+01 0.45257217991E+01 0.40601335747E+01
 0.37644625086E+01 0.36241270643E+01 0.36305796625E+01 0.37838894948E+01 0.40927923926E+01
 0.45723055636E+01 0.52387263560E+01 0.61017492028E+01 0.71542541254E+01 0.83623413456E+01
 0.96599897387E+01 0.10948290477E+02 0.12002394953E+02 0.12485251210E+02 0.12148121839E+02
 0.10934073028E+02 0.11278999594E+02 0.98088082848E+01 0.81701382027E+01 0.68056009048E+01
 0.60959911643E+01 0.62341463142E+01 0.71608426129E+01 0.85896263608E+01 0.10107613552E+02
 0.11308183458E+02 0.11905951701E+02 0.11801264933E+02 0.11084483545E+02 0.99874949832E+01
 0.87776933146E+01 0.75930978539E+01 0.65122138338E+01 0.55868817062E+01 0.48411490465E+01
 0.42770769094E+01 0.38838675338E+01 0.36467286817E+01 0.35534807303E+01 0.35984748220E+01
 0.37841255962E+01 0.41203624776E+01 0.46219860276E+01 0.53036159775E+01 0.61720389336E+01
 0.72167578263E+01 0.84013987836E+01 0.96599897387E+01 0.10898206877E+02 0.11915080130E+02
 0.12419374391E+02 0.12213344431E+02 0.12254134698E+02 0.11635942382E+02 0.10615906181E+02
 0.95045253957E+01 0.86474381584E+01 0.83107561261E+01 0.85896396755E+01 0.93776230458E+01
 0.10408360235E+02 0.11349604622E+02 0.11910197812E+02 0.11922730653E+02 0.11380279222E+02
 0.10422938299E+02 0.92780632264E+01 0.81113168148E+01 0.70061230574E+01 0.60237165006E+01
 0.52002241243E+01 0.45484513041E+01 0.40645503945E+01 0.37363084340E+01 0.35503831608E+01
 0.34972669986E+01 0.35739143057E+01 0.37844762704E+01 0.41393785709E+01 0.46525938250E+01
 0.53367166386E+01 0.61957800626E+01 0.72167578263E+01 0.83623413456E+01 0.95685801832E+01
 0.10748656221E+02 0.11736681646E+02 0.12289788932E+02 0.12073703439E+02 0.12218276843E+02
 0.11912295048E+02 0.11309807686E+02 0.10654873812E+02 0.10198175664E+02 0.10107628768E+02
 0.10408369940E+02 0.10976532372E+02 0.11587526232E+02 0.11996603637E+02 0.12019700850E+02
 0.11587921075E+02 0.10762001480E+02 0.97055877666E+01 0.85844644107E+01 0.74850880504E+01
 0.64729473492E+01 0.55931663995E+01 0.48687055076E+01 0.43040232681E+01 0.38917713630E+01
 0.36198587162E+01 0.34770659130E+01 0.34565326165E+01 0.35573578084E+01 0.37847817075E+01
 0.41490882553E+01 0.46629331015E+01 0.53367166386E+01 0.61720389336E+01 0.71542541254E+01
 0.82465336502E+01 0.93886262619E+01 0.10502379410E+02 0.11462093771E+02 0.11088967831E+02
 0.11751064990E+02 0.12058866440E+02 0.12027786328E+02 0.11776306115E+02 0.11480972853E+02
 0.11308195812E+02 0.11349615041E+02 0.11587531602E+02 0.11903963661E+02 0.12127609315E+02
 0.12097978413E+02 0.11722213098E+02 0.11006243124E+02 0.10052231514E+02 0.90004004457E+01
 0.79348811691E+01 0.69209422195E+01 0.60091166608E+01 0.52306937773E+01 0.45985124427E+01
 0.41115343330E+01 0.37609673336E+01 0.35359734439E+01 0.34277705354E+01 0.34318943231E+01
 0.35490361282E+01 0.37849020618E+01 0.41490882553E+01 0.46525938250E+01 0.53036159775E+01
 0.61017492028E+01 0.70316070469E+01 0.80580698341E+01 0.91259339763E+01 0.10165819044E+02
 0.97500298061E+01 0.10622165861E+02 0.11312458006E+02 0.11746349205E+02 0.11930646686E+02
 0.11945507989E+02 0.11905965133E+02 0.11910207131E+02 0.11996609333E+02 0.12127611104E+02
 0.12206264398E+02 0.12116932917E+02 0.11772693762E+02 0.11151482541E+02 0.10308862968E+02
 0.93482671384E+01 0.83431911968E+01 0.73553314679E+01 0.64373517198E+01 0.56265787207E+01
 0.49433816336E+01 0.43935657690E+01 0.39730964360E+01 0.36733399891E+01 0.34854224256E+01
 0.34030180384E+01 0.34236527023E+01 0.35490361282E+01 0.37847817075E+01 0.41393785709E+01
 0.46219860276E+01 0.52387263560E+01 0.59876650139E+01 0.68534722125E+01 0.78037456250E+01
 0.87893243791E+01 0.83905763764E+01 0.92687177080E+01 0.10077122977E+02 0.10764878053E+02
 0.11276700263E+02 0.11607356134E+02 0.11801279088E+02 0.11922741181E+02 0.12019707329E+02
 0.12097980692E+02 0.12116932459E+02 0.12007816294E+02 0.11705820547E+02 0.11182084400E+02
 0.10463037227E+02 0.96161318273E+01 0.86980972535E+01 0.77646368016E+01 0.68677777122E+01
 0.60486139761E+01 0.53337684099E+01 0.47357436848E+01 0.42560799305E+01 0.38897587992E+01
 0.36294331706E+01 0.34685424547E+01 0.34030180384E+01 0.34318943231E+01 0.35573578084E+01
 0.37844762704E+01 0.41203624776E+01 0.45723055636E+01 0.51445869426E+01 0.58342300543E+01
 0.66266532986E+01 0.74929373313E+01 0.71373128665E+01 0.79441154333E+01 0.87383527444E+01
 0.94791033609E+01 0.10133870764E+02 0.10674063628E+02 0.11084492822E+02 0.11380288365E+02
 0.11587928556E+02 0.11722217429E+02 0.11772694148E+02 0.11705819088E+02 0.11481454889E+02
 0.11075733488E+02 0.10499692922E+02 0.97899427311E+01 0.89864156058E+01 0.81368826782E+01
 0.72902327824E+01 0.64890742589E+01 0.57648066963E+01 0.51360891026E+01 0.46103478112E+01
 0.41871335541E+01 0.38619448226E+01 0.36294331706E+01 0.34854224256E+01 0.34277705354E+01
 0.34565326165E+01 0.35739143057E+01 0.37841255962E+01 0.40927923926E+01 0.45054391817E+01
 0.50248129649E+01 0.56473706843E+01 0.63598475618E+01 0.60632653785E+01 0.67503243391E+01
 0.74663866754E+01 0.81776848169E+01 0.88511788596E+01 0.94601467667E+01 0.99874999497E+01
 0.10422942762E+02 0.10762006266E+02 0.11006247968E+02 0.11151485400E+02 0.11182084012E+02
 0.11075731924E+02 0.10816254811E+02 0.10404719084E+02 0.98547180824E+01 0.91931895692E+01
 0.84581914162E+01 0.76929386484E+01 0.69390453154E+01 0.62308567081E+01 0.55922867329E+01
 0.50365856829E+01 0.45684304618E+01 0.41871335541E+01 0.38897587992E+01 0.36733399891E+01
 0.35359734439E+01 0.34770659130E+01 0.34972669986E+01 0.35984748220E+01 0.37838894948E+01
 0.40576872235E+01 0.44238371599E+01 0.48839030405E+01 0.54342187291E+01 0.52027742777E+01
 0.57481195921E+01 0.63464867042E+01 0.69749296538E+01 0.76066920000E+01 0.82151393556E+01
 0.87776997367E+01 0.92780663917E+01 0.97055889519E+01 0.10052233234E+02 0.10308865783E+02
 0.10463039013E+02 0.10499692401E+02 0.10404717995E+02 0.10169977474E+02 0.97977661614E+01
 0.93030235762E+01 0.87125027841E+01 0.80611273651E+01 0.73865868142E+01 0.67237052020E+01
 0.61001380010E+01 0.55344326284E+01 0.50365856829E+01 0.46103478112E+01 0.42560799305E+01
 0.39730964360E+01 0.37609673336E+01 0.36198587162E+01 0.35503831608E+01 0.35534807303E+01
 0.36305796625E+01 0.37838746541E+01 0.40162456593E+01 0.43303804736E+01 0.47270244960E+01
 0.45597878063E+01 0.49615136636E+01 0.54260065017E+01 0.59405003148E+01 0.64872682778E+01
 0.70453174713E+01 0.75931048137E+01 0.81113227465E+01 0.85844667640E+01 0.90004000241E+01
 0.93482669993E+01 0.96161330049E+01 0.97899436074E+01 0.98547179339E+01 0.97977660575E+01
 0.96127506618E+01 0.93030327468E+01 0.88830163070E+01 0.83769352838E+01 0.78153667805E+01
 0.72304518442E+01 0.66511909736E+01 0.61001380010E+01 0.55922867329E+01 0.51360891026E+01
 0.47357436848E+01 0.43935657690E+01 0.41115343330E+01 0.38917713630E+01 0.37363084340E+01
 0.36467286817E+01 0.36241270643E+01 0.36694709870E+01 0.37840853785E+01 0.39697808179E+01
 0.42282599153E+01 0.41208712418E+01 0.43880067973E+01 0.47189529044E+01 0.51082309743E+01
 0.55463370596E+01 0.60198000449E+01 0.65122151463E+01 0.70061283643E+01 0.74850939267E+01
 0.79348835359E+01 0.83431901879E+01 0.86980958730E+01 0.89864153144E+01 0.91931899154E+01
 0.93030245388E+01 0.93030341920E+01 0.91863831897E+01 0.89550974595E+01 0.86210703250E+01
 0.82048121993E+01 0.77322422599E+01 0.72304518442E+01 0.67237052020E+01 0.62308567081E+01
 0.57648066963E+01 0.53337684099E+01 0.49433816336E+01 0.45985124427E+01 0.43040232681E+01
 0.40645503945E+01 0.38838675338E+01 0.37644625086E+01 0.37076399295E+01 0.37140671393E+01
 0.37844200995E+01 0.39196916543E+01 0.38674657765E+01 0.40117138413E+01 0.42174400001E+01
 0.44831971044E+01 0.48051625539E+01 0.51764379904E+01 0.55868784771E+01 0.60237170310E+01
 0.64729530050E+01 0.69209484999E+01 0.73553337987E+01 0.77646353226E+01 0.81368803413E+01
 0.84581902263E+01 0.87125035450E+01 0.88830192255E+01 0.89551006951E+01 0.89196758581E+01
 0.87759089524E+01 0.85321560705E+01 0.82048121993E+01 0.78153667805E+01 0.73865868142E+01
 0.69390453154E+01 0.64890742589E+01 0.60486139761E+01 0.56265787207E+01 0.52306937773E+01
 0.48687055076E+01 0.45484513041E+01 0.42770769094E+01 0.40601335747E+01 0.39011580249E+01
 0.38019009311E+01 0.37629959919E+01 0.37847187426E+01 0.37848379909E+01 0.38146821952E+01
 0.39042737395E+01 0.40535267117E+01 0.42615338445E+01 0.45257229295E+01 0.48411479534E+01
 0.52002233668E+01 0.55931700399E+01 0.60091241199E+01 0.64373579449E+01 0.68677792965E+01
 0.72902308084E+01 0.76929360740E+01 0.80611264361E+01 0.83769374614E+01 0.86210753371E+01
 0.87759134483E+01 0.88290200456E+01 0.87759089524E+01 0.86210703250E+01 0.83769352838E+01
 0.80611273651E+01 0.76929386484E+01 0.72902327824E+01 0.68677777122E+01 0.64373517198E+01
 0.60091166608E+01 0.55931663995E+01 0.52002241243E+01 0.48411490465E+01 0.45257217991E+01
 0.42615322397E+01 0.40535270107E+01 0.39042756067E+01 0.38146838300E+01 0.38674655646E+01
 0.37847187736E+01 0.37629917421E+01 0.38018918863E+01 0.39011489834E+01 0.40601288447E+01
 0.42770765073E+01 0.45484535792E+01 0.48687106174E+01 0.52307022077E+01 0.56265876010E+01
 0.60486191766E+01 0.64890748342E+01 0.69390434805E+01 0.73865850312E+01 0.78153669397E+01
 0.82048157134E+01 0.85321620080E+01 0.87759134483E+01 0.89196758581E+01 0.89550974595E+01
 0.88830163070E+01 0.87125027841E+01 0.84581914162E+01 0.81368826782E+01 0.77646368016E+01
 0.73553314679E+01 0.69209422195E+01 0.64729473492E+01 0.60237165006E+01 0.55868817062E+01
 0.51764391456E+01 0.48051581660E+01 0.44831889096E+01 0.42174322132E+01 0.40117098129E+01
 0.41208602285E+01 0.39196861337E+01 0.37844152224E+01 0.37140563399E+01 0.37076230844E+01
 0.37644464798E+01 0.38838589843E+01 0.40645506963E+01 0.43040303033E+01 0.45985236092E+01
 0.49433938074E+01 0.53337774842E+01 0.57648105798E+01 0.62308569015E+01 0.67237041990E+01
 0.72304510797E+01 0.77322430379E+01 0.82048157134E+01 0.86210753371E+01 0.89551006951E+01
 0.91863831897E+01 0.93030327468E+01 0.93030235762E+01 0.91931895692E+01 0.89864156058E+01
 0.86980972535E+01 0.83431911968E+01 0.79348811691E+01 0.74850880504E+01 0.70061230574E+01
 0.65122138338E+01 0.60198011489E+01 0.55463356342E+01 0.51082235456E+01 0.47189398838E+01
 0.43879921315E+01 0.45597660587E+01 0.42282393256E+01 0.39697648665E+01 0.37840707319E+01
 0.36694521432E+01 0.36241045175E+01 0.36467094116E+01 0.37362987830E+01 0.38917728414E+01
 0.41115447194E+01 0.43935806921E+01 0.47357576892E+01 0.51360977773E+01 0.55922898890E+01
 0.61001383684E+01 0.66511904751E+01 0.72304510797E+01 0.78153669397E+01 0.83769374614E+01
 0.88830192255E+01 0.93030341920E+01 0.96127506618E+01 0.97977661614E+01 0.98547180824E+01
 0.97899427311E+01 0.96161318273E+01 0.93482671384E+01 0.90004004457E+01 0.85844644107E+01
 0.81113168148E+01 0.75930978539E+01 0.70453118975E+01 0.64872639959E+01 0.59404949175E+01
 0.54259966639E+01 0.49614969046E+01 0.52027542750E+01 0.47269966822E+01 0.43303505273E+01
 0.40162188698E+01 0.37838502785E+01 0.36305544674E+01 0.35534556605E+01 0.35503634341E+01
 0.36198488471E+01 0.37609688659E+01 0.39731078307E+01 0.42560962834E+01 0.46103624384E+01
 0.50365941039E+01 0.55344356346E+01 0.61001383684E+01 0.67237041990E+01 0.73865850312E+01
 0.80611264361E+01 0.87125035450E+01 0.93030245388E+01 0.97977660575E+01 0.10169977474E+02
 0.10404719084E+02 0.10499692922E+02 0.10463037227E+02 0.10308862968E+02 0.10052231514E+02
 0.97055877666E+01 0.92780632264E+01 0.87776933146E+01 0.82151301401E+01 0.76066812186E+01
 0.69749189566E+01 0.63464767277E+01 0.57481072005E+01 0.60632513459E+01 0.54341981391E+01
 0.48838734773E+01 0.44238031074E+01 0.40576543035E+01 0.37838586972E+01 0.35984454284E+01
 0.34972405930E+01 0.34770459489E+01 0.35359627709E+01 0.36733405675E+01 0.38897699411E+01
 0.41871502324E+01 0.45684452263E+01 0.50365941039E+01 0.55922898890E+01 0.62308569015E+01
 0.69390434805E+01 0.76929360740E+01 0.84581902263E+01 0.91931899154E+01 0.98547179339E+01
 0.10404717995E+02 0.10816254811E+02 0.11075733488E+02 0.11182084400E+02 0.11151482541E+02
 0.11006243124E+02 0.10762001480E+02 0.10422938299E+02 0.99874949832E+01 0.94601401444E+01
 0.88511687175E+01 0.81776704706E+01 0.74663709112E+01 0.67503105816E+01 0.71372989384E+01
 0.63598356593E+01 0.56473543880E+01 0.50247884166E+01 0.45054085516E+01 0.40927591097E+01
 0.37840914512E+01 0.35738815075E+01 0.34565044479E+01 0.34277495690E+01 0.34854106162E+01
 0.36294328751E+01 0.38619557336E+01 0.41871502324E+01 0.46103624384E+01 0.51360977773E+01
 0.57648105798E+01 0.64890748342E+01 0.72902308084E+01 0.81368803413E+01 0.89864153144E+01
 0.97899436074E+01 0.10499692401E+02 0.11075731924E+02 0.11481454889E+02 0.11705820547E+02
 0.11772693762E+02 0.11722213098E+02 0.11587921075E+02 0.11380279222E+02 0.11084483545E+02
 0.10674056166E+02 0.10133864860E+02 0.94790949206E+01 0.87383386246E+01 0.79440987289E+01
 0.83905650499E+01 0.74929292560E+01 0.66266484341E+01 0.58342226359E+01 0.51445726638E+01
 0.45722831783E+01 0.41203321485E+01 0.37844403882E+01 0.35573220684E+01 0.34318643299E+01
 0.34029961311E+01 0.34685301240E+01 0.36294328751E+01 0.38897699411E+01 0.42560962834E+01
 0.47357576892E+01 0.53337774842E+01 0.60486191766E+01 0.68677792965E+01 0.77646353226E+01
 0.86980958730E+01 0.96161330049E+01 0.10463039013E+02 0.11182084012E+02 0.11705819088E+02
 0.12007816294E+02 0.12116932917E+02 0.12097978413E+02 0.12019700850E+02 0.11922730653E+02
 0.11801264933E+02 0.11607341338E+02 0.11276690203E+02 0.10764874125E+02 0.10077119379E+02
 0.92687090520E+01 0.97500311031E+01 0.87893242751E+01 0.78037484824E+01 0.68534772759E+01
 0.59876680705E+01 0.52387233309E+01 0.46219725574E+01 0.41393518264E+01 0.37847449816E+01
 0.35489986199E+01 0.34236219349E+01 0.34029961311E+01 0.34854106162E+01 0.36733405675E+01
 0.39731078307E+01 0.43935806921E+01 0.49433938074E+01 0.56265876010E+01 0.64373579449E+01
 0.73553337987E+01 0.83431901879E+01 0.93482669993E+01 0.10308865783E+02 0.11151485400E+02
 0.11772694148E+02 0.12116932459E+02 0.12206264398E+02 0.12127609315E+02 0.11996603637E+02
 0.11910197812E+02 0.11905951701E+02 0.11945489454E+02 0.11930627300E+02 0.11746337675E+02
 0.11312457401E+02 0.10622169589E+02 0.11088979184E+02 0.10165831758E+02 0.91259477234E+01
 0.80580853249E+01 0.70316219475E+01 0.61017611560E+01 0.53036217377E+01 0.46525868904E+01
 0.41490638421E+01 0.37848651022E+01 0.35489986199E+01 0.34318643299E+01 0.34277495690E+01
 0.35359627709E+01 0.37609688659E+01 0.41115447194E+01 0.45985236092E+01 0.52307022077E+01
 0.60091241199E+01 0.69209484999E+01 0.79348835359E+01 0.90004000241E+01 0.10052233234E+02
 0.11006247968E+02 0.11722217429E+02 0.12097980692E+02 0.12127611104E+02 0.11903963661E+02
 0.11587526232E+02 0.11349604622E+02 0.11308183458E+02 0.11480957606E+02 0.11776285559E+02
 0.12027765509E+02 0.12058855995E+02 0.11751068590E+02 0.12073711091E+02 0.11462110545E+02
 0.10502401802E+02 0.93886528490E+01 0.82465603315E+01 0.71542766495E+01 0.61720565733E+01
 0.53367271042E+01 0.46629285525E+01 0.41490638421E+01 0.37847449816E+01 0.35573220684E+01
 0.34565044479E+01 0.34770459489E+01 0.36198488471E+01 0.38917728414E+01 0.43040303033E+01
 0.48687106174E+01 0.55931700399E+01 0.64729530050E+01 0.74850939267E+01 0.85844667640E+01
 0.97055889519E+01 0.10762006266E+02 0.11587928556E+02 0.12019707329E+02 0.11996609333E+02
 0.11587531602E+02 0.10976532372E+02 0.10408360235E+02 0.10107613552E+02 0.10198161302E+02
 0.10654859072E+02 0.11309789157E+02 0.11912277830E+02 0.12218270768E+02 0.12254136215E+02
 0.12289799946E+02 0.11736700977E+02 0.10748685298E+02 0.95686164101E+01 0.83623757332E+01
 0.72167845074E+01 0.61957996419E+01 0.53367271042E+01 0.46525868904E+01 0.41393518264E+01
 0.37844403882E+01 0.35738815075E+01 0.34972405930E+01 0.35503634341E+01 0.37362987830E+01
 0.40645506963E+01 0.45484535792E+01 0.52002233668E+01 0.60237170310E+01 0.70061283643E+01
 0.81113227465E+01 0.92780663917E+01 0.10422942762E+02 0.11380288365E+02 0.11922741181E+02
 0.11910207131E+02 0.11349615041E+02 0.10408369940E+02 0.93776230458E+01 0.85896263608E+01
 0.83107382371E+01 0.86474245051E+01 0.95045145627E+01 0.10615894742E+02 0.11635934500E+02
 0.11279005984E+02 0.12213355969E+02 0.12419388366E+02 0.11915100311E+02 0.10898239843E+02
 0.96600311959E+01 0.84014359506E+01 0.72167845074E+01 0.61720565733E+01 0.53036217377E+01
 0.46219725574E+01 0.41203321485E+01 0.37840914512E+01 0.35984454284E+01 0.35534556605E+01
 0.36467094116E+01 0.38838589843E+01 0.42770765073E+01 0.48411479534E+01 0.55868784771E+01
 0.65122151463E+01 0.75931048137E+01 0.87776997367E+01 0.99874999497E+01 0.11084492822E+02
 0.11801279088E+02 0.11905965133E+02 0.11308195812E+02 0.10107628768E+02 0.85896396755E+01
 0.71608426129E+01 0.62341321594E+01 0.60959752109E+01 0.68055922013E+01 0.81701352146E+01
 0.98088089277E+01 0.90279224303E+01 0.10934095944E+02 0.12148143664E+02 0.12485267714E+02
 0.12002415414E+02 0.10948324741E+02 0.96600311959E+01 0.83623757332E+01 0.71542766495E+01
 0.61017611560E+01 0.52387233309E+01 0.45722831783E+01 0.40927591097E+01 0.37838586972E+01
 0.36305544674E+01 0.36241045175E+01 0.37644464798E+01 0.40601288447E+01 0.45257229295E+01
 0.51764379904E+01 0.60198000449E+01 0.70453174713E+01 0.82151393556E+01 0.94601467667E+01
 0.10674063628E+02 0.11607356134E+02 0.11945507989E+02 0.11480972853E+02 0.10198175664E+02
 0.83107561261E+01 0.62341463142E+01 0.44880886266E+01 0.35473397255E+01 0.36876213694E+01
 0.48882671928E+01 0.68357529822E+01 0.56989703978E+01 0.84121990383E+01 0.10686749120E+02
 0.12102856847E+02 0.12505034953E+02 0.12002415414E+02 0.10898239843E+02 0.95686164101E+01
 0.82465603315E+01 0.70316219475E+01 0.59876680705E+01 0.51445726638E+01 0.45054085516E+01
 0.40576543035E+01 0.37838502785E+01 0.36694521432E+01 0.37076230844E+01 0.39011489834E+01
 0.42615338445E+01 0.48051625539E+01 0.55463370596E+01 0.64872682778E+01 0.76066920000E+01
 0.88511788596E+01 0.10133870764E+02 0.11276700263E+02 0.11930646686E+02 0.11776306115E+02
 0.10654873812E+02 0.86474381584E+01 0.60959911643E+01 0.35473502384E+01 0.16188811779E+01
 0.81665159911E+00 0.13690062189E+01 0.31455110251E+01 0.18201570724E+01 0.49356098423E+01
 0.80732883749E+01 0.10597092994E+02 0.12102856847E+02 0.12485267714E+02 0.11915100311E+02
 0.10748685298E+02 0.93886528490E+01 0.80580853249E+01 0.68534772759E+01 0.58342226359E+01
 0.50247884166E+01 0.44238031074E+01 0.40162188698E+01 0.37840707319E+01 0.37140563399E+01
 0.38018918863E+01 0.40535267117E+01 0.44831971044E+01 0.51082309743E+01 0.59405003148E+01
 0.69749296538E+01 0.81776848169E+01 0.94791033609E+01 0.10764878053E+02 0.11746349205E+02
 0.12027786328E+02 0.11309807686E+02 0.95045253957E+01 0.68056009048E+01 0.36876291518E+01
 0.81665354952E+00 -.11215009964E+01 -.16288697410E+01 -.56124334864E+00 -.18401870143E+01
 0.11044400104E+01 0.46667722884E+01 0.80732883749E+01 0.10686749120E+02 0.12148143664E+02
 0.12419388366E+02 0.11736700977E+02 0.10502401802E+02 0.91259477234E+01 0.78037484824E+01
 0.66266484341E+01 0.56473543880E+01 0.48838734773E+01 0.43303505273E+01 0.39697648665E+01
 0.37844152224E+01 0.37629917421E+01 0.39042737395E+01 0.42174400001E+01 0.47189529044E+01
 0.54260065017E+01 0.63464867042E+01 0.74663866754E+01 0.87383527444E+01 0.10077122977E+02
 0.11312458006E+02 0.12058866440E+02 0.11912295048E+02 0.10615906181E+02 0.81701382027E+01
 0.48882660843E+01 0.13690000292E+01 -.16288797698E+01 -.33915313748E+01 -.34718939355E+01
 -.44622637129E+01 -.22878203621E+01 0.11044400104E+01 0.49356098423E+01 0.84121990383E+01
 0.10934095944E+02 0.12213355969E+02 0.12289799946E+02 0.11462110545E+02 0.10165831758E+02
 0.87893242751E+01 0.74929292560E+01 0.63598356593E+01 0.54341981391E+01 0.47269966822E+01
 0.42282393256E+01 0.39196861337E+01 0.37847187736E+01 0.38146821952E+01 0.40117138413E+01
 0.43880067973E+01 0.49615136636E+01 0.57481195921E+01 0.67503243391E+01 0.79441154333E+01
 0.92687177080E+01 0.10622165861E+02 0.11751064990E+02 0.12218276843E+02 0.11635942382E+02
 0.98088082848E+01 0.68357444439E+01 0.31454963699E+01 -.56126613133E+00 -.34719158421E+01
 -.48911791412E+01 -.44622787923E+01 -.37869677750E+01 -.14880968320E+01 0.18800256121E+01
 0.55528031381E+01 0.87816243403E+01 0.11024009279E+02 0.12046040360E+02 0.11927411427E+02
 0.10987379040E+02 0.96610220612E+01 0.82969352718E+01 0.70307116939E+01 0.59385802160E+01
 0.50577252873E+01 0.43936598738E+01 0.39331823712E+01 0.36569942168E+01 0.35489843369E+01
 0.36018823639E+01 0.38194698324E+01 0.42153816510E+01 0.48084671160E+01 0.56145924359E+01
 0.66348519435E+01 0.78421901057E+01 0.91716692029E+01 0.10514220281E+02 0.11589835749E+02
 0.11962630139E+02 0.11269922874E+02 0.93575901533E+01 0.63708200304E+01 0.27735128568E+01
 -.72685392545E+00 -.33490286249E+01 -.37869905297E+01 -.44622936851E+01 -.33490339087E+01
 -.72685713666E+00 0.27735046847E+01 0.63708096839E+01 0.93575873447E+01 0.11269934754E+02
 0.11962656224E+02 0.11589868957E+02 0.10514252705E+02 0.91716947117E+01 0.78422052161E+01
 0.66348570681E+01 0.56145922294E+01 0.48084669641E+01 0.42153829742E+01 0.38194702895E+01
 0.36018804257E+01 0.35489809706E+01 0.36569911010E+01 0.39331798325E+01 0.43936578657E+01
 0.50577228814E+01 0.59385739029E+01 0.70306959173E+01 0.82969072606E+01 0.96609851400E+01
 0.10987339612E+02 0.11927374641E+02 0.12046010390E+02 0.11023989947E+02 0.87816160412E+01
 0.55527993730E+01 0.18800154599E+01 -.14881170352E+01 -.14006361301E+01 -.32558558463E+01
 -.34719304691E+01 -.20044976861E+01 0.77179206820E+00 0.41881253167E+01 0.74907298708E+01
 0.10050356752E+02 0.11503906988E+02 0.11800616423E+02 0.11160843818E+02 0.99732374244E+01
 0.86411598081E+01 0.73625642058E+01 0.62280972663E+01 0.52897090076E+01 0.45643074564E+01
 0.40451130698E+01 0.37147172274E+01 0.35556467860E+01 0.35573116622E+01 0.37195182800E+01
 0.40526490737E+01 0.45745451286E+01 0.53039928529E+01 0.62505809837E+01 0.74017839456E+01
 0.87111578409E+01 0.10093717761E+02 0.11381344572E+02 0.12186339383E+02 0.12097189832E+02
 0.10850038369E+02 0.84399170937E+01 0.51746463198E+01 0.16449402661E+01 0.21074990421E+01
 -.47513478151E+00 -.18295938561E+01 -.16289058052E+01 0.58903278133E-01 0.27947517566E+01
 0.59141723138E+01 0.87315123830E+01 0.10724000761E+02 0.11640916517E+02 0.11522096807E+02
 0.10639077565E+02 0.93850383768E+01 0.80863816969E+01 0.68742954077E+01 0.58242357713E+01
 0.49745363658E+01 0.43327651606E+01 0.38877845636E+01 0.36218354134E+01 0.35196145866E+01
 0.35738884497E+01 0.37878620382E+01 0.41744351884E+01 0.47523390338E+01 0.55389434925E+01
 0.65395755400E+01 0.77348818820E+01 0.90707298157E+01 0.10455969505E+02 0.11692268574E+02
 0.12384076277E+02 0.12158317056E+02 0.10812008863E+02 0.84075071769E+01 0.53045415706E+01
 0.59279117624E+01 0.32019832946E+01 0.11581846354E+01 0.29532363839E+00 0.81661874009E+00
 0.25624613280E+01 0.50662684868E+01 0.77084625382E+01 0.99034083968E+01 0.11251147634E+02
 0.11613590823E+02 0.11108830197E+02 0.10039504278E+02 0.87722469606E+01 0.75253200492E+01
 0.63935964494E+01 0.54363103911E+01 0.46787048373E+01 0.41204902900E+01 0.37477073429E+01
 0.35433625298E+01 0.34949017608E+01 0.35984759424E+01 0.38602504195E+01 0.42949025639E+01
 0.49211958854E+01 0.57543145972E+01 0.67950350032E+01 0.80179041524E+01 0.93631423923E+01
 0.10735693582E+02 0.11919451371E+02 0.12534546870E+02 0.12255534104E+02 0.10939232764E+02
 0.87015473753E+01 0.92779695428E+01 0.69507392552E+01 0.47707364419E+01 0.32741399312E+01
 0.28359535164E+01 0.35473089493E+01 0.51865986387E+01 0.72973021868E+01 0.93378309755E+01
 0.10842204190E+02 0.11536862472E+02 0.11386425348E+02 0.10568424908E+02 0.93937855918E+01
 0.81539092495E+01 0.69760376544E+01 0.59356746881E+01 0.50759157534E+01 0.44104449428E+01
 0.39330274813E+01 0.36284359232E+01 0.34813711113E+01 0.34823318548E+01 0.36306086304E+01
 0.39347068663E+01 0.44102774439E+01 0.50753113738E+01 0.59422396555E+01 0.70073790839E+01
 0.82403263990E+01 0.95778858934E+01 0.10924008161E+02 0.12061572124E+02 0.12642114641E+02
 0.12391496435E+02 0.11219610161E+02 0.11602051800E+02 0.10040567434E+02 0.82179837483E+01
 0.65937334539E+01 0.55935250398E+01 0.54732196121E+01 0.62341018775E+01 0.76256545456E+01
 0.92340079765E+01 0.10617402984E+02 0.11435895089E+02 0.11534473370E+02 0.10962700554E+02
 0.99347632927E+01 0.87378091993E+01 0.75495515697E+01 0.64556653815E+01 0.55139270525E+01
 0.47526927376E+01 0.41763167347E+01 0.37746828606E+01 0.35326892536E+01 0.34373885491E+01
 0.34823431742E+01 0.36695213175E+01 0.40090443978E+01 0.45167403393E+01 0.52091307162E+01
 0.60955720450E+01 0.71683508907E+01 0.83935134415E+01 0.97066248390E+01 0.11014104332E+02
 0.12114048216E+02 0.12698705162E+02 0.12543976097E+02 0.12670797633E+02 0.12007376870E+02
 0.10860171706E+02 0.95427555895E+01 0.84281838599E+01 0.78316266362E+01 0.79055897289E+01
 0.85895984348E+01 0.96353058822E+01 0.10695009329E+02 0.11436077268E+02 0.11639080681E+02
 0.11250895236E+02 0.10383195421E+02 0.92620089242E+01 0.80948172220E+01 0.69782987694E+01
 0.59794435531E+01 0.51393672202E+01 0.44740718120E+01 0.39811355092E+01 0.36485130636E+01
 0.34623353834E+01 0.34123492932E+01 0.34949326197E+01 0.37141267339E+01 0.40809152697E+01
 0.46105687662E+01 0.53175980063E+01 0.62082197923E+01 0.72713721556E+01 0.84710278921E+01
 0.97434804378E+01 0.11000653006E+02 0.12068703190E+02 0.12685123064E+02 0.12576142884E+02
 0.12719768543E+02 0.12344948719E+02 0.11599462564E+02 0.10739816538E+02 0.10049665793E+02
 0.97439585224E+01 0.98946933119E+01 0.10408339577E+02 0.11063452962E+02 0.11591189982E+02
 0.11765881197E+02 0.11473920263E+02 0.10741624265E+02 0.97176138671E+01 0.85966213137E+01
 0.74865969568E+01 0.64576901843E+01 0.55600373510E+01 0.48203875565E+01 0.42452972270E+01
 0.38280894210E+01 0.35564327573E+01 0.34184452497E+01 0.34066015709E+01 0.35196574275E+01
 0.37630530043E+01 0.41479132722E+01 0.46883215541E+01 0.53964280304E+01 0.62754725984E+01
 0.73118769803E+01 0.84689591387E+01 0.96854378862E+01 0.10880439779E+02 0.11915864120E+02
 0.11648272740E+02 0.12347986083E+02 0.12641126241E+02 0.12531223056E+02 0.12138058675E+02
 0.11656460762E+02 0.11286463991E+02 0.11160226242E+02 0.11294463248E+02 0.11587515968E+02