   2   2   0   0
  0.1589128E+02  0.3668815E-09  0.3668815E-09  0.3668815E-09  0.5000000E-15
  1.000000000000000E-004
  CAR 
 unknown system                          
     22.88069326     -6.65172912  301      8.59118768      1.00000000
     -6.652  0.0000E+00  0.0000E+00
     -6.553  0.0000E+00  0.0000E+00
     -6.455  0.0000E+00  0.0000E+00
     -6.356  0.0000E+00  0.0000E+00
     -6.258  0.0000E+00  0.0000E+00
     -6.160  0.0000E+00  0.0000E+00
     -6.061  0.0000E+00  0.0000E+00
     -5.963  0.0000E+00  0.0000E+00
     -5.864  0.0000E+00  0.0000E+00
     -5.766  0.1762E-16  0.1735E-17
     -5.667  0.3637E-14  0.3597E-15
     -5.569  0.4652E-12  0.4616E-13
     -5.470  0.3697E-10  0.3686E-11
     -5.372  0.1827E-08  0.1836E-09
     -5.274  0.5624E-07  0.5720E-08
     -5.175  0.1080E-05  0.1120E-06
     -5.077  0.1295E-04  0.1387E-05
     -4.978  0.9735E-04  0.1097E-04
     -4.880  0.4606E-03  0.5631E-04
     -4.781  0.1387E-02  0.1928E-03
     -4.683  0.2741E-02  0.4627E-03
     -4.584  0.3927E-02  0.8492E-03
     -4.486  0.5239E-02  0.1365E-02
     -4.388  0.8116E-02  0.2164E-02
     -4.289  0.1232E-01  0.3377E-02
     -4.191  0.1484E-01  0.4837E-02
     -4.092  0.1390E-01  0.6205E-02
     -3.994  0.1115E-01  0.7303E-02
     -3.895  0.8910E-02  0.8180E-02
     -3.797  0.8788E-02  0.9045E-02
     -3.698  0.1202E-01  0.1023E-01
     -3.600  0.1864E-01  0.1206E-01
     -3.502  0.2496E-01  0.1452E-01
     -3.403  0.2493E-01  0.1697E-01
     -3.305  0.1922E-01  0.1887E-01
     -3.206  0.1629E-01  0.2047E-01
     -3.108  0.1900E-01  0.2234E-01
     -3.009  0.2116E-01  0.2442E-01
     -2.911  0.1947E-01  0.2634E-01
     -2.813  0.1770E-01  0.2808E-01
     -2.714  0.1881E-01  0.2993E-01
     -2.616  0.2139E-01  0.3204E-01
     -2.517  0.2398E-01  0.3440E-01
     -2.419  0.2645E-01  0.3700E-01
     -2.320  0.2712E-01  0.3967E-01
     -2.222  0.2451E-01  0.4208E-01
     -2.123  0.2363E-01  0.4441E-01
     -2.025  0.3006E-01  0.4737E-01
     -1.927  0.3710E-01  0.5102E-01
     -1.828  0.3393E-01  0.5436E-01
     -1.730  0.2256E-01  0.5658E-01
     -1.631  0.1276E-01  0.5784E-01
     -1.533  0.1006E-01  0.5883E-01
     -1.434  0.1635E-01  0.6044E-01
     -1.336  0.3123E-01  0.6351E-01
     -1.237  0.4824E-01  0.6826E-01
     -1.139  0.5486E-01  0.7366E-01
     -1.041  0.4591E-01  0.7818E-01
     -0.942  0.3298E-01  0.8143E-01
     -0.844  0.2832E-01  0.8422E-01
     -0.745  0.3013E-01  0.8718E-01
     -0.647  0.3106E-01  0.9024E-01
     -0.548  0.2867E-01  0.9306E-01
     -0.450  0.2513E-01  0.9554E-01
     -0.351  0.2358E-01  0.9786E-01
     -0.253  0.2553E-01  0.1004E+00
     -0.155  0.2895E-01  0.1032E+00
     -0.056  0.3005E-01  0.1062E+00
      0.042  0.3016E-01  0.1091E+00
      0.141  0.3709E-01  0.1128E+00
      0.239  0.5193E-01  0.1179E+00
      0.338  0.6130E-01  0.1239E+00
      0.436  0.5541E-01  0.1294E+00
      0.534  0.4250E-01  0.1336E+00
      0.633  0.3428E-01  0.1370E+00
      0.731  0.3346E-01  0.1403E+00
      0.830  0.4085E-01  0.1443E+00
      0.928  0.5498E-01  0.1497E+00
      1.027  0.6370E-01  0.1560E+00
      1.125  0.5746E-01  0.1616E+00
      1.224  0.4535E-01  0.1661E+00
      1.322  0.3874E-01  0.1699E+00
      1.420  0.3431E-01  0.1733E+00
      1.519  0.2714E-01  0.1759E+00
      1.617  0.2171E-01  0.1781E+00
      1.716  0.2127E-01  0.1802E+00
      1.814  0.2233E-01  0.1824E+00
      1.913  0.2184E-01  0.1845E+00
      2.011  0.2151E-01  0.1866E+00
      2.110  0.2377E-01  0.1890E+00
      2.208  0.2864E-01  0.1918E+00
      2.306  0.3800E-01  0.1955E+00
      2.405  0.5425E-01  0.2009E+00
      2.503  0.6986E-01  0.2078E+00
      2.602  0.7329E-01  0.2150E+00
      2.700  0.6553E-01  0.2214E+00
      2.799  0.5471E-01  0.2268E+00
      2.897  0.4265E-01  0.2310E+00
      2.996  0.2982E-01  0.2339E+00
      3.094  0.2081E-01  0.2360E+00
      3.192  0.1819E-01  0.2378E+00
      3.291  0.2123E-01  0.2399E+00
      3.389  0.2987E-01  0.2428E+00
      3.488  0.4152E-01  0.2469E+00
      3.586  0.4800E-01  0.2516E+00
      3.685  0.4394E-01  0.2560E+00
      3.783  0.3401E-01  0.2593E+00
      3.882  0.2782E-01  0.2620E+00
      3.980  0.3277E-01  0.2653E+00
      4.078  0.4977E-01  0.2702E+00
      4.177  0.7115E-01  0.2772E+00
      4.275  0.8481E-01  0.2855E+00
      4.374  0.8387E-01  0.2938E+00
      4.472  0.7386E-01  0.3010E+00
      4.571  0.6393E-01  0.3073E+00
      4.669  0.5389E-01  0.3126E+00
      4.767  0.4213E-01  0.3168E+00
      4.866  0.3355E-01  0.3201E+00
      4.964  0.2901E-01  0.3229E+00
      5.063  0.2497E-01  0.3254E+00
      5.161  0.2339E-01  0.3277E+00
      5.260  0.2968E-01  0.3306E+00
      5.358  0.4538E-01  0.3351E+00
      5.457  0.6636E-01  0.3416E+00
      5.555  0.8447E-01  0.3499E+00
      5.653  0.9166E-01  0.3590E+00
      5.752  0.8514E-01  0.3673E+00
      5.850  0.6832E-01  0.3741E+00
      5.949  0.4885E-01  0.3789E+00
      6.047  0.3792E-01  0.3826E+00
      6.146  0.4265E-01  0.3868E+00
      6.244  0.5742E-01  0.3925E+00
      6.343  0.6899E-01  0.3993E+00
      6.441  0.6797E-01  0.4059E+00
      6.539  0.5647E-01  0.4115E+00
      6.638  0.4736E-01  0.4162E+00
      6.736  0.5005E-01  0.4211E+00
      6.835  0.6231E-01  0.4272E+00
      6.933  0.7917E-01  0.4350E+00
      7.032  0.9570E-01  0.4444E+00
      7.130  0.1024E+00  0.4545E+00
      7.229  0.9451E-01  0.4638E+00
      7.327  0.7967E-01  0.4717E+00
      7.425  0.6650E-01  0.4782E+00
      7.524  0.5708E-01  0.4838E+00
      7.622  0.5105E-01  0.4889E+00
      7.721  0.4593E-01  0.4934E+00
      7.819  0.3867E-01  0.4972E+00
      7.918  0.3218E-01  0.5004E+00
      8.016  0.3190E-01  0.5035E+00
      8.114  0.3757E-01  0.5072E+00
      8.213  0.4442E-01  0.5116E+00
      8.311  0.5004E-01  0.5165E+00
      8.410  0.5642E-01  0.5221E+00
      8.508  0.6259E-01  0.5282E+00
      8.607  0.6106E-01  0.5342E+00
      8.705  0.5024E-01  0.5392E+00
      8.804  0.4084E-01  0.5432E+00
      8.902  0.4124E-01  0.5472E+00
      9.000  0.4708E-01  0.5519E+00
      9.099  0.4944E-01  0.5568E+00
      9.197  0.4515E-01  0.5612E+00
      9.296  0.3729E-01  0.5649E+00
      9.394  0.3039E-01  0.5679E+00
      9.493  0.2706E-01  0.5705E+00
      9.591  0.2863E-01  0.5733E+00
      9.690  0.3608E-01  0.5769E+00
      9.788  0.4736E-01  0.5816E+00
      9.886  0.5864E-01  0.5873E+00
      9.985  0.6658E-01  0.5939E+00
     10.083  0.6545E-01  0.6003E+00
     10.182  0.5528E-01  0.6058E+00
     10.280  0.4900E-01  0.6106E+00
     10.379  0.5668E-01  0.6162E+00
     10.477  0.7294E-01  0.6234E+00
     10.576  0.8386E-01  0.6316E+00
     10.674  0.7980E-01  0.6395E+00
     10.772  0.6582E-01  0.6459E+00
     10.871  0.5561E-01  0.6514E+00
     10.969  0.5302E-01  0.6566E+00
     11.068  0.5213E-01  0.6618E+00
     11.166  0.5160E-01  0.6668E+00
     11.265  0.5537E-01  0.6723E+00
     11.363  0.6594E-01  0.6788E+00
     11.461  0.8357E-01  0.6870E+00
     11.560  0.1026E+00  0.6971E+00
     11.658  0.1105E+00  0.7080E+00
     11.757  0.1021E+00  0.7180E+00
     11.855  0.8429E-01  0.7263E+00
     11.954  0.6341E-01  0.7326E+00
     12.052  0.4303E-01  0.7368E+00
     12.151  0.2814E-01  0.7396E+00
     12.249  0.2037E-01  0.7416E+00
     12.347  0.1839E-01  0.7434E+00
     12.446  0.2481E-01  0.7459E+00
     12.544  0.4299E-01  0.7501E+00
     12.643  0.6834E-01  0.7568E+00
     12.741  0.8914E-01  0.7656E+00
     12.840  0.9678E-01  0.7751E+00
     12.938  0.9194E-01  0.7842E+00
     13.037  0.8143E-01  0.7922E+00
     13.135  0.7153E-01  0.7992E+00
     13.233  0.6507E-01  0.8056E+00
     13.332  0.6584E-01  0.8121E+00
     13.430  0.7717E-01  0.8197E+00
     13.529  0.9276E-01  0.8288E+00
     13.627  0.1002E+00  0.8387E+00
     13.726  0.9462E-01  0.8480E+00
     13.824  0.8107E-01  0.8560E+00
     13.923  0.6875E-01  0.8628E+00
     14.021  0.6691E-01  0.8693E+00
     14.119  0.7652E-01  0.8769E+00
     14.218  0.8740E-01  0.8855E+00
     14.316  0.8998E-01  0.8943E+00
     14.415  0.8377E-01  0.9026E+00
     14.513  0.7278E-01  0.9098E+00
     14.612  0.6112E-01  0.9158E+00
     14.710  0.5290E-01  0.9210E+00
     14.808  0.4865E-01  0.9258E+00
     14.907  0.4584E-01  0.9303E+00
     15.005  0.4526E-01  0.9347E+00
     15.104  0.4737E-01  0.9394E+00
     15.202  0.4986E-01  0.9443E+00
     15.301  0.5579E-01  0.9498E+00
     15.399  0.6820E-01  0.9565E+00
     15.498  0.7863E-01  0.9643E+00
     15.596  0.7620E-01  0.9718E+00
     15.694  0.6268E-01  0.9779E+00
     15.793  0.4987E-01  0.9828E+00
     15.891  0.4549E-01  0.9873E+00
     15.990  0.4619E-01  0.9919E+00
     16.088  0.4339E-01  0.9961E+00
     16.187  0.3595E-01  0.9997E+00
     16.285  0.3356E-01  0.1003E+01
     16.384  0.4246E-01  0.1007E+01
     16.482  0.5433E-01  0.1013E+01
     16.580  0.5667E-01  0.1018E+01
     16.679  0.4947E-01  0.1023E+01
     16.777  0.4161E-01  0.1027E+01
     16.876  0.3564E-01  0.1031E+01
     16.974  0.2811E-01  0.1033E+01
     17.073  0.1951E-01  0.1035E+01
     17.171  0.1377E-01  0.1037E+01
     17.270  0.1144E-01  0.1038E+01
     17.368  0.9455E-02  0.1039E+01
     17.466  0.6276E-02  0.1039E+01
     17.565  0.4472E-02  0.1040E+01
     17.663  0.8312E-02  0.1041E+01
     17.762  0.1953E-01  0.1042E+01
     17.860  0.3176E-01  0.1046E+01
     17.959  0.3382E-01  0.1049E+01
     18.057  0.2510E-01  0.1051E+01
     18.156  0.1587E-01  0.1053E+01
     18.254  0.1107E-01  0.1054E+01
     18.352  0.8313E-02  0.1055E+01
     18.451  0.6708E-02  0.1056E+01
     18.549  0.6495E-02  0.1056E+01
     18.648  0.5974E-02  0.1057E+01
     18.746  0.4513E-02  0.1057E+01
     18.845  0.4421E-02  0.1058E+01
     18.943  0.7306E-02  0.1058E+01
     19.041  0.1100E-01  0.1059E+01
     19.140  0.1206E-01  0.1061E+01
     19.238  0.1049E-01  0.1062E+01
     19.337  0.8415E-02  0.1062E+01
     19.435  0.6066E-02  0.1063E+01
     19.534  0.3319E-02  0.1063E+01
     19.632  0.1338E-02  0.1064E+01
     19.731  0.8591E-03  0.1064E+01
     19.829  0.1606E-02  0.1064E+01
     19.927  0.2712E-02  0.1064E+01
     20.026  0.3185E-02  0.1064E+01
     20.124  0.3081E-02  0.1065E+01
     20.223  0.3144E-02  0.1065E+01
     20.321  0.3080E-02  0.1065E+01
     20.420  0.2234E-02  0.1065E+01
     20.518  0.1104E-02  0.1066E+01
     20.617  0.5883E-03  0.1066E+01
     20.715  0.1009E-02  0.1066E+01
     20.813  0.2086E-02  0.1066E+01
     20.912  0.2858E-02  0.1066E+01
     21.010  0.2466E-02  0.1066E+01
     21.109  0.1336E-02  0.1067E+01
     21.207  0.4543E-03  0.1067E+01
     21.306  0.9684E-04  0.1067E+01
     21.404  0.1293E-04  0.1067E+01
     21.503  0.1079E-05  0.1067E+01
     21.601  0.5622E-07  0.1067E+01
     21.699  0.1827E-08  0.1067E+01
     21.798  0.3697E-10  0.1067E+01
     21.896  0.4652E-12  0.1067E+01
     21.995  0.3636E-14  0.1067E+01
     22.093  0.1762E-16  0.1067E+01
     22.192  0.0000E+00  0.1067E+01
     22.290  0.0000E+00  0.1067E+01
     22.388  0.0000E+00  0.1067E+01
     22.487  0.0000E+00  0.1067E+01
     22.585  0.0000E+00  0.1067E+01
     22.684  0.0000E+00  0.1067E+01
     22.782  0.0000E+00  0.1067E+01
     22.881  0.0000E+00  0.1067E+01
