    2    2   15    1
  0.1589128E+02  0.3668815E-09  0.3668815E-09  0.3668815E-09  0.5000000E-15
  1.000000000000000E-004
  CAR 
 unknown system                          
      8     56      8
 
  0.6250000E-01  0.6250000E-01  0.6250000E-01  0.1562500E-01
    1       -4.258532   1.000000
    2        4.591764   1.000000
    3        6.794631   1.000000
    4        8.517784   0.698134
    5       11.919336   0.000000
    6       13.312807   0.000000
    7       13.804518   0.000000
    8       16.090053   0.000000
 
  0.1875000E+00  0.6250000E-01  0.6250000E-01  0.3125000E-01
    1       -3.086480   1.000000
    2        4.260647   1.000000
    3        6.999010   1.000000
    4        8.964240   0.004171
    5       10.575743   0.000000
    6       10.873883   0.000000
    7       13.498669   0.000000
    8       14.451918   0.000000
 
  0.3125000E+00  0.6250000E-01  0.6250000E-01  0.3125000E-01
    1       -1.166909   1.000000
    2        4.298860   1.000000
    3        5.407713   1.000000
    4        7.168596   1.000000
    5        8.498679   0.743487
    6       11.556156   0.000000
    7       13.139316   0.000000
    8       13.723043   0.000000
 
  0.4375000E+00  0.6250000E-01  0.6250000E-01  0.1562500E-01
    1        0.998672   1.000000
    2        2.077309   1.000000
    3        5.591427   1.000000
    4        6.197749   1.000000
    5        8.367792   0.942906
    6       10.512570   0.000000
    7       13.082756   0.000000
    8       14.023985   0.000000
 
 -0.6250000E-01  0.6250000E-01  0.6250000E-01  0.7812500E-02
    1       -4.651729   1.000000
    2        5.265204   1.000000
    3        5.997162   1.000000
    4        8.201032   0.997099
    5       11.070580   0.000000
    6       14.799782   0.000000
    7       16.751307   0.000000
    8       17.168952   0.000000
 
  0.1875000E+00  0.1875000E+00  0.6250000E-01  0.1562500E-01
    1       -1.352956   1.000000
    2        4.372830   1.000000
    3        6.166844   1.000000
    4        6.457990   1.000000
    5        9.573366   0.000000
    6       11.637126   0.000000
    7       12.702516   0.000000
    8       12.990906   0.000000
 
  0.3125000E+00  0.1875000E+00  0.6250000E-01  0.3125000E-01
    1        0.969911   1.000000
    2        2.777190   1.000000
    3        4.158436   1.000000
    4        5.743870   1.000000
    5        9.745901   0.000000
    6       11.509276   0.000000
    7       12.600786   0.000000
    8       14.708085   0.000000
 
  0.4375000E+00  0.1875000E+00  0.6250000E-01  0.3125000E-01
    1       -0.236918   1.000000
    2        2.625738   1.000000
    3        4.644876   1.000000
    4        7.082330   1.000000
    5        9.073014   0.000328
    6       11.794900   0.000000
    7       13.621104   0.000000
    8       14.553398   0.000000
 
 -0.4375000E+00  0.1875000E+00  0.6250000E-01  0.3125000E-01
    1       -2.322508   1.000000
    2        2.149013   1.000000
    3        7.450764   1.000000
    4        8.536116   0.651515
    5       10.081020   0.000000
    6       11.645183   0.000000
    7       12.788517   0.000000
    8       15.083164   0.000000
 
 -0.3125000E+00  0.1875000E+00  0.6250000E-01  0.1562500E-01
    1       -3.680167   1.000000
    2        2.316968   1.000000
    3        7.299497   1.000000
    4        9.423871   0.000000
    5       11.908966   0.000000
    6       13.213167   0.000000
    7       14.237328   0.000000
    8       14.975873   0.000000
 
 -0.1875000E+00  0.1875000E+00  0.6250000E-01  0.1562500E-01
    1       -4.265033   1.000000
    2        3.180187   1.000000
    3        6.136113   1.000000
    4        9.419872   0.000000
    5       12.895467   0.000000
    6       13.094685   0.000000
    7       15.958228   0.000000
    8       16.400995   0.000000
 
 -0.6250000E-01  0.1875000E+00  0.6250000E-01  0.1562500E-01
    1       -4.065671   1.000000
    2        4.344061   1.000000
    3        5.433926   1.000000
    4        9.971443   0.000000
    5       12.467558   0.000000
    6       12.655523   0.000000
    7       13.500653   0.000000
    8       15.381723   0.000000
 
  0.3125000E+00  0.3125000E+00  0.6250000E-01  0.1562500E-01
    1        0.993727   1.000000
    2        1.093848   1.000000
    3        4.431163   1.000000
    4        6.997374   1.000000
    5        9.883445   0.000000
    6       10.664440   0.000000
    7       14.795054   0.000000
    8       15.511724   0.000000
 
  0.4375000E+00  0.3125000E+00  0.6250000E-01  0.3125000E-01
    1       -1.184996   1.000000
    2        0.313618   1.000000
    3        7.706523   1.000000
    4        8.501537   0.736936
    5       10.008537   0.000000
    6       11.351727   0.000000
    7       12.691207   0.000000
    8       14.084368   0.000000
 
 -0.4375000E+00  0.3125000E+00  0.6250000E-01  0.1562500E-01
    1       -2.721188   1.000000
    2        0.298861   1.000000
    3        8.126485   0.999492
    4       10.338340   0.000000
    5       10.649626   0.000000
    6       12.708824   0.000000
    7       13.459620   0.000000
    8       13.505767   0.000000
 
 -0.3125000E+00  0.3125000E+00  0.6250000E-01  0.1562500E-01
    1       -3.494570   1.000000
    2        1.027022   1.000000
    3        6.831586   1.000000
    4       10.343952   0.000000
    5       10.965011   0.000000
    6       14.382891   0.000000
    7       15.762270   0.000000
    8       16.280285   0.000000
 
 -0.1875000E+00  0.3125000E+00  0.6250000E-01  0.3125000E-01
    1       -3.488592   1.000000
    2        2.454109   1.000000
    3        5.589030   1.000000
    4       10.625698   0.000000
    5       11.269131   0.000000
    6       12.661734   0.000000
    7       14.535969   0.000000
    8       15.435252   0.000000
 
 -0.6250000E-01  0.3125000E+00  0.6250000E-01  0.1562500E-01
    1       -2.704796   1.000000
    2        4.117124   1.000000
    3        5.361556   1.000000
    4        8.073754   0.999873
    5       10.999839   0.000000
    6       12.871056   0.000000
    7       13.245392   0.000000
    8       13.297000   0.000000
 
  0.4375000E+00  0.4375000E+00  0.6250000E-01  0.7812500E-02
    1       -1.389989   1.000000
    2       -1.389989   1.000000
    3        9.238853   0.000002
    4        9.238854   0.000002
    5       11.646131   0.000000
    6       11.646133   0.000000
    7       13.057958   0.000000
    8       13.057960   0.000000
 
 -0.4375000E+00  0.4375000E+00  0.6250000E-01  0.1562500E-01
    1       -2.346670   1.000000
    2       -0.832497   1.000000
    3        7.884220   1.000000
    4        9.271866   0.000001
    5       11.454411   0.000000
    6       12.820819   0.000000
    7       15.819505   0.000000
    8       15.956904   0.000000
 
 -0.3125000E+00  0.4375000E+00  0.6250000E-01  0.3125000E-01
    1       -2.532147   1.000000
    2        0.472583   1.000000
    3        6.439331   1.000000
    4        9.157333   0.000031
    5       11.156147   0.000000
    6       12.903656   0.000000
    7       14.329011   0.000000
    8       15.569098   0.000000
 
 -0.1875000E+00  0.4375000E+00  0.6250000E-01  0.3125000E-01
    1       -1.945037   1.000000
    2        2.448263   1.000000
    3        5.584703   1.000000
    4        7.415081   1.000000
    5        9.765703   0.000000
    6       12.209074   0.000000
    7       14.174257   0.000000
    8       15.069917   0.000000
 
 -0.6250000E-01  0.4375000E+00  0.6250000E-01  0.1562500E-01
    1       -0.612472   1.000000
    2        3.743618   1.000000
    3        5.265700   1.000000
    4        5.866138   1.000000
    5        9.033575   0.000880
    6       11.305756   0.000000
    7       11.923973   0.000000
    8       15.164817   0.000000
 
 -0.4375000E+00 -0.4375000E+00  0.6250000E-01  0.1562500E-01
    1       -1.210416   1.000000
    2       -1.200934   1.000000
    3        7.625325   1.000000
    4        7.677683   1.000000
    5       11.074191   0.000000
    6       13.520934   0.000000
    7       14.374064   0.000000
    8       14.438027   0.000000
 
 -0.3125000E+00 -0.4375000E+00  0.6250000E-01  0.3125000E-01
    1       -0.815750   1.000000
    2        0.666249   1.000000
    3        6.356834   1.000000
    4        7.178664   1.000000
    5        8.316618   0.973901
    6       11.791427   0.000000
    7       15.326941   0.000000
    8       16.501734   0.000000
 
 -0.1875000E+00 -0.4375000E+00  0.6250000E-01  0.3125000E-01
    1        0.295386   1.000000
    2        2.852162   1.000000
    3        4.048133   1.000000
    4        6.390022   1.000000
    5        8.618478   0.423491
    6       10.495357   0.000000
    7       12.921753   0.000000
    8       16.553954   0.000000
 
 -0.6250000E-01 -0.4375000E+00  0.6250000E-01  0.1562500E-01
    1        0.615282   1.000000
    2        2.467050   1.000000
    3        6.235805   1.000000
    4        6.714376   1.000000
    5        7.567519   1.000000
    6       10.094057   0.000000
    7       11.577977   0.000000
    8       15.431885   0.000000
 
 -0.3125000E+00 -0.3125000E+00  0.6250000E-01  0.1562500E-01
    1        1.390246   1.000000
    2        1.660466   1.000000
    3        3.649930   1.000000
    4        7.256033   1.000000
    5        7.731365   1.000000
    6       10.058887   0.000000
    7       14.822979   0.000000
    8       15.600748   0.000000
 
 -0.1875000E+00 -0.3125000E+00  0.6250000E-01  0.3125000E-01
    1        0.309220   1.000000
    2        3.473110   1.000000
    3        4.863503   1.000000
    4        7.085753   1.000000
    5        8.169426   0.998570
    6        9.982260   0.000000
    7       11.647925   0.000000
    8       14.154322   0.000000
 
 -0.6250000E-01 -0.3125000E+00  0.6250000E-01  0.1562500E-01
    1       -1.730110   1.000000
    2        5.541846   1.000000
    3        6.946652   1.000000
    4        7.047875   1.000000
    5        8.274359   0.987465
    6       10.720168   0.000000
    7       11.554363   0.000000
    8       13.421041   0.000000
 
 -0.1875000E+00 -0.1875000E+00  0.6250000E-01  0.1562500E-01
    1       -1.918614   1.000000
    2        6.288197   1.000000
    3        6.878128   1.000000
    4        7.396148   1.000000
    5        8.698337   0.224327
    6       10.349498   0.000000
    7       11.575593   0.000000
    8       11.757709   0.000000
 
 -0.6250000E-01 -0.1875000E+00  0.6250000E-01  0.1562500E-01
    1       -3.470001   1.000000
    2        6.271374   1.000000
    3        6.894895   1.000000
    4        8.924711   0.009178
    5       10.572012   0.000000
    6       10.952860   0.000000
    7       12.037911   0.000000
    8       13.530653   0.000000
 
 -0.6250000E-01 -0.6250000E-01  0.6250000E-01  0.3906250E-02
    1       -4.451810   1.000000
    2        6.625122   1.000000
    3        6.625123   1.000000
    4        7.205124   1.000000
    5       10.791253   0.000000
    6       13.965968   0.000000
    7       14.175891   0.000000
    8       16.156180   0.000000
 
  0.1875000E+00  0.1875000E+00  0.1875000E+00  0.1562500E-01
    1       -0.417368   1.000000
    2        2.495151   1.000000
    3        5.726701   1.000000
    4        5.853113   1.000000
    5       10.613966   0.000000
    6       12.535536   0.000000
    7       13.751725   0.000000
    8       14.114948   0.000000
 
  0.3125000E+00  0.1875000E+00  0.1875000E+00  0.1562500E-01
    1        1.711572   1.000000
    2        2.544363   1.000000
    3        3.665121   1.000000
    4        4.411163   1.000000
    5       11.444969   0.000000
    6       13.388321   0.000000
    7       13.781598   0.000000
    8       13.900705   0.000000
 
 -0.1875000E+00  0.1875000E+00  0.1875000E+00  0.7812500E-02
    1       -3.880039   1.000000
    2        3.043852   1.000000
    3        4.326620   1.000000
    4       10.842425   0.000000
    5       11.556079   0.000000
    6       14.163993   0.000000
    7       15.592391   0.000000
    8       15.984141   0.000000
 
  0.3125000E+00  0.3125000E+00  0.1875000E+00  0.7812500E-02
    1        0.874749   1.000000
    2        0.874749   1.000000
    3        5.613823   1.000000
    4        5.613823   1.000000
    5       11.904926   0.000000
    6       11.904928   0.000000
    7       13.748367   0.000000
    8       13.748371   0.000000
 
 -0.3125000E+00  0.3125000E+00  0.1875000E+00  0.1562500E-01
    1       -3.113370   1.000000
    2        1.336108   1.000000
    3        4.590168   1.000000
    4        8.810302   0.060646
    5       12.794130   0.000000
    6       14.863990   0.000000
    7       15.536845   0.000000
    8       16.867494   0.000000
 
 -0.1875000E+00  0.3125000E+00  0.1875000E+00  0.1562500E-01
    1       -2.915784   1.000000
    2        2.473046   1.000000
    3        3.846433   1.000000
    4        8.903137   0.013698
    5       10.939016   0.000000
    6       14.268393   0.000000
    7       15.819446   0.000000
    8       16.010969   0.000000
 
 -0.4375000E+00  0.4375000E+00  0.1875000E+00  0.1562500E-01
    1       -1.972694   1.000000
    2       -0.473993   1.000000
    3        5.627156   1.000000
    4        7.051288   1.000000
    5       13.627203   0.000000
    6       14.262872   0.000000
    7       15.684749   0.000000
    8       16.434220   0.000000
 
 -0.3125000E+00  0.4375000E+00  0.1875000E+00  0.3125000E-01
    1       -1.968009   1.000000
    2        0.961851   1.000000
    3        4.254277   1.000000
    4        7.040982   1.000000
    5       10.454533   0.000000
    6       15.463457   0.000000
    7       16.038896   0.000000
    8       17.879382   0.000000
 
 -0.1875000E+00  0.4375000E+00  0.1875000E+00  0.1562500E-01
    1       -1.195338   1.000000
    2        2.621286   1.000000
    3        4.056758   1.000000
    4        6.611435   1.000000
    5        7.988381   0.999990
    6       13.468964   0.000000
    7       14.758827   0.000000
    8       16.762575   0.000000
 
 -0.4375000E+00 -0.4375000E+00  0.1875000E+00  0.1562500E-01
    1       -0.670061   1.000000
    2       -0.649796   1.000000
    3        5.436502   1.000000
    4        5.482508   1.000000
    5       10.285714   0.000000
    6       15.579692   0.000000
    7       16.861443   0.000000
    8       17.295268   0.000000
 
 -0.3125000E+00 -0.4375000E+00  0.1875000E+00  0.3125000E-01
    1       -0.088519   1.000000
    2        1.329882   1.000000
    3        4.577358   1.000000
    4        5.779149   1.000000
    5        6.771728   1.000000
    6       13.602493   0.000000
    7       16.425767   0.000000
    8       17.852624   0.000000
 
 -0.1875000E+00 -0.4375000E+00  0.1875000E+00  0.1562500E-01
    1        1.128057   1.000000
    2        2.720625   1.000000
    3        4.197221   1.000000
    4        4.947693   1.000000
    5        7.271277   1.000000
    6       11.606856   0.000000
    7       12.816185   0.000000
    8       16.670058   0.000000
 
 -0.3125000E+00 -0.3125000E+00  0.1875000E+00  0.1562500E-01
    1        1.822168   1.000000
    2        2.544005   1.000000
    3        3.516072   1.000000
    4        5.711590   1.000000
    5        5.866846   1.000000
    6       11.826129   0.000000
    7       14.272245   0.000000
    8       15.162733   0.000000
 
 -0.1875000E+00 -0.3125000E+00  0.1875000E+00  0.1562500E-01
    1       -0.039267   1.000000
    2        4.506563   1.000000
    3        5.544393   1.000000
    4        6.387948   1.000000
    5        7.302730   1.000000
    6       10.495402   0.000000
    7       11.482481   0.000000
    8       13.094945   0.000000
 
 -0.1875000E+00 -0.1875000E+00  0.1875000E+00  0.3906250E-02
    1       -2.107801   1.000000
    2        7.591943   1.000000
    3        7.591943   1.000000
    4        7.808568   1.000000
    5        7.981400   0.999992
    6        9.546461   0.000000
    7       11.267999   0.000000
    8       11.268002   0.000000
 
 -0.3125000E+00  0.3125000E+00  0.3125000E+00  0.7812500E-02
    1       -2.355682   1.000000
    2        1.525879   1.000000
    3        2.972218   1.000000
    4        6.724791   1.000000
    5       13.840871   0.000000
    6       14.323161   0.000000
    7       16.632549   0.000000
    8       18.260866   0.000000
 
 -0.4375000E+00  0.4375000E+00  0.3125000E+00  0.1562500E-01
    1       -1.234801   1.000000
    2        0.203343   1.000000
    3        3.545741   1.000000
    4        4.941695   1.000000
    5       13.848884   0.000000
    6       13.959640   0.000000
    7       17.915063   0.000000
    8       19.003324   0.000000
 
 -0.3125000E+00  0.4375000E+00  0.3125000E+00  0.1562500E-01
    1       -1.040713   1.000000
    2        1.330039   1.000000
    3        2.809520   1.000000
    4        5.115351   1.000000
    5        9.945450   0.000000
    6       16.842337   0.000000
    7       18.178483   0.000000
    8       18.561089   0.000000
 
 -0.4375000E+00 -0.4375000E+00  0.3125000E+00  0.1562500E-01
    1        0.186464   1.000000
    2        0.222258   1.000000
    3        3.537672   1.000000
    4        3.564764   1.000000
    5        9.771986   0.000000
    6       17.001475   0.000000
    7       19.079372   0.000000
    8       19.326588   0.000000
 
 -0.3125000E+00 -0.4375000E+00  0.3125000E+00  0.1562500E-01
    1        0.946473   1.000000
    2        1.867815   1.000000
    3        3.368873   1.000000
    4        4.239866   1.000000
    5        6.205967   1.000000
    6       15.357495   0.000000
    7       16.494548   0.000000
    8       17.830780   0.000000
 
 -0.3125000E+00 -0.3125000E+00  0.3125000E+00  0.3906250E-02
    1        1.947600   1.000000
    2        3.331683   1.000000
    3        4.108371   1.000000
    4        4.621805   1.000000
    5        4.621805   1.000000
    6       13.692561   0.000000
    7       14.085539   0.000000
    8       14.085544   0.000000
 
 -0.4375000E+00  0.4375000E+00  0.4375000E+00  0.7812500E-02
    1       -0.177617   1.000000
    2        0.757484   1.000000
    3        2.267814   1.000000
    4        3.189375   1.000000
    5       13.640148   0.000000
    6       13.666656   0.000000
    7       20.264023   0.000000
    8       20.880693   0.000000
 
 -0.4375000E+00 -0.4375000E+00  0.4375000E+00  0.3906250E-02
    1        0.915105   1.000000
    2        0.976611   1.000000
    3        2.456488   1.000000
    4        2.456488   1.000000
    5        9.597764   0.000000
    6       17.328319   0.000000
    7       19.939976   0.000000
    8       19.940073   0.000000
