       N       E                     dE             d eps       ncg     rms          rms(c)
DAV:   1     0.505408897997E+00    0.50541E+00   -0.28635E+03   904   0.581E+02
DAV:   2    -0.101530905294E+02   -0.10658E+02   -0.10325E+02  1328   0.647E+01
DAV:   3    -0.102786097852E+02   -0.12552E+00   -0.12453E+00  1192   0.841E+00
DAV:   4    -0.102789351268E+02   -0.32534E-03   -0.32533E-03  1320   0.415E-01
DAV:   5    -0.102789358782E+02   -0.75139E-06   -0.75099E-06  1296   0.124E-02    0.161E+00
DAV:   6    -0.102691203477E+02    0.98155E-02   -0.57275E-03  1112   0.472E-01    0.995E-01
DAV:   7    -0.102630764084E+02    0.60439E-02   -0.14062E-02  1224   0.775E-01    0.626E-02
DAV:   8    -0.102630101121E+02    0.66296E-04   -0.65916E-04   640   0.184E-01
   1 F= -.10263010E+02 E0= -.10254255E+02  d E =-.102630E+02
