<?xml version="1.0" encoding="ISO-8859-1"?>
<modeling>
 <generator>
  <i name="program" type="string">vasp </i>
  <i name="version" type="string">5.4.4.18Apr17-6-g9f103f2a35  </i>
  <i name="subversion" type="string">(build Dec 09 2018 21:25:21) complex            parallel </i>
  <i name="platform" type="string">IFC18.0.1.163_CrayMPICH7.7.0_MKL18.0.1.163 </i>
  <i name="date" type="string">2019 04 01 </i>
  <i name="time" type="string">15:52:25 </i>
 </generator>
 <incar>
  <i type="string" name="PREC">normal</i>
  <i type="int" name="IBRION">     2</i>
  <i name="EDIFF">      0.00040000</i>
  <i name="EDIFFG">     -0.01000000</i>
  <i type="int" name="NSW">    15</i>
  <i type="int" name="ISIF">     2</i>
  <i name="ENCUT">    350.00000000</i>
  <i type="int" name="NBANDS">     8</i>
  <i type="logical" name="LREAL"> F  </i>
  <i type="int" name="ISMEAR">     0</i>
  <i name="SIGMA">      0.20000000</i>
  <v type="int" name="KPOINT_BSE">    -1     0     0     0</v>
 </incar>
 <structure name="primitive_cell" >
  <crystal>
   <varray name="basis" >
    <v>      -2.40577800       2.40577800       1.37283300 </v>
    <v>       2.40577800      -2.40577800       1.37283300 </v>
    <v>       2.40577800       2.40577800      -1.37283300 </v>
   </varray>
   <i name="volume">     31.78255445 </i>
   <varray name="rec_basis" >
    <v>      -0.00000000       0.20783298       0.36421036 </v>
    <v>       0.20783298      -0.00000000       0.36421036 </v>
    <v>       0.20783298       0.20783298      -0.00000000 </v>
   </varray>
  </crystal>
  <varray name="positions" >
   <v>       0.00000000       0.00000000       0.00000000 </v>
   <v>       0.25000000      -0.25000000      -0.50000000 </v>
  </varray>
 </structure>
 <varray name="primitive_index" >
  <v type="int" >        1 </v>
  <v type="int" >        2 </v>
 </varray>
 <kpoints>
  <generation param="Monkhorst-Pack">
   <v type="int" name="divisions">       8        8        8 </v>
   <v name="usershift">      0.00000000       0.00000000       0.00000000 </v>
   <v name="genvec1">      0.12500000      -0.00000000       0.00000000 </v>
   <v name="genvec2">     -0.00000000       0.12500000       0.00000000 </v>
   <v name="genvec3">     -0.00000000       0.00000000       0.12500000 </v>
   <v name="shift">      0.50000000       0.50000000       0.50000000 </v>
  </generation>
  <varray name="kpointlist" >
   <v>       0.06250000       0.06250000       0.06250000 </v>
   <v>       0.18750000       0.06250000       0.06250000 </v>
   <v>       0.31250000       0.06250000       0.06250000 </v>
   <v>       0.43750000       0.06250000       0.06250000 </v>
   <v>      -0.06250000       0.06250000       0.06250000 </v>
   <v>       0.18750000       0.18750000       0.06250000 </v>
   <v>       0.31250000       0.18750000       0.06250000 </v>
   <v>       0.43750000       0.18750000       0.06250000 </v>
   <v>      -0.43750000       0.18750000       0.06250000 </v>
   <v>      -0.31250000       0.18750000       0.06250000 </v>
   <v>      -0.18750000       0.18750000       0.06250000 </v>
   <v>      -0.06250000       0.18750000       0.06250000 </v>
   <v>       0.31250000       0.31250000       0.06250000 </v>
   <v>       0.43750000       0.31250000       0.06250000 </v>
   <v>      -0.43750000       0.31250000       0.06250000 </v>
   <v>      -0.31250000       0.31250000       0.06250000 </v>
   <v>      -0.18750000       0.31250000       0.06250000 </v>
   <v>      -0.06250000       0.31250000       0.06250000 </v>
   <v>       0.43750000       0.43750000       0.06250000 </v>
   <v>      -0.43750000       0.43750000       0.06250000 </v>
   <v>      -0.31250000       0.43750000       0.06250000 </v>
   <v>      -0.18750000       0.43750000       0.06250000 </v>
   <v>      -0.06250000       0.43750000       0.06250000 </v>
   <v>      -0.43750000      -0.43750000       0.06250000 </v>
   <v>      -0.31250000      -0.43750000       0.06250000 </v>
   <v>      -0.18750000      -0.43750000       0.06250000 </v>
   <v>      -0.06250000      -0.43750000       0.06250000 </v>
   <v>      -0.31250000      -0.31250000       0.06250000 </v>
   <v>      -0.18750000      -0.31250000       0.06250000 </v>
   <v>      -0.06250000      -0.31250000       0.06250000 </v>
   <v>      -0.18750000      -0.18750000       0.06250000 </v>
   <v>      -0.06250000      -0.18750000       0.06250000 </v>
   <v>      -0.06250000      -0.06250000       0.06250000 </v>
   <v>       0.18750000       0.18750000       0.18750000 </v>
   <v>       0.31250000       0.18750000       0.18750000 </v>
   <v>      -0.18750000       0.18750000       0.18750000 </v>
   <v>       0.31250000       0.31250000       0.18750000 </v>
   <v>      -0.31250000       0.31250000       0.18750000 </v>
   <v>      -0.18750000       0.31250000       0.18750000 </v>
   <v>      -0.43750000       0.43750000       0.18750000 </v>
   <v>      -0.31250000       0.43750000       0.18750000 </v>
   <v>      -0.18750000       0.43750000       0.18750000 </v>
   <v>      -0.43750000      -0.43750000       0.18750000 </v>
   <v>      -0.31250000      -0.43750000       0.18750000 </v>
   <v>      -0.18750000      -0.43750000       0.18750000 </v>
   <v>      -0.31250000      -0.31250000       0.18750000 </v>
   <v>      -0.18750000      -0.31250000       0.18750000 </v>
   <v>      -0.18750000      -0.18750000       0.18750000 </v>
   <v>      -0.31250000       0.31250000       0.31250000 </v>
   <v>      -0.43750000       0.43750000       0.31250000 </v>
   <v>      -0.31250000       0.43750000       0.31250000 </v>
   <v>      -0.43750000      -0.43750000       0.31250000 </v>
   <v>      -0.31250000      -0.43750000       0.31250000 </v>
   <v>      -0.31250000      -0.31250000       0.31250000 </v>
   <v>      -0.43750000       0.43750000       0.43750000 </v>
   <v>      -0.43750000      -0.43750000       0.43750000 </v>
  </varray>
  <varray name="weights" >
   <v>       0.01562500 </v>
   <v>       0.03125000 </v>
   <v>       0.03125000 </v>
   <v>       0.01562500 </v>
   <v>       0.00781250 </v>
   <v>       0.01562500 </v>
   <v>       0.03125000 </v>
   <v>       0.03125000 </v>
   <v>       0.03125000 </v>
   <v>       0.01562500 </v>
   <v>       0.01562500 </v>
   <v>       0.01562500 </v>
   <v>       0.01562500 </v>
   <v>       0.03125000 </v>
   <v>       0.01562500 </v>
   <v>       0.01562500 </v>
   <v>       0.03125000 </v>
   <v>       0.01562500 </v>
   <v>       0.00781250 </v>
   <v>       0.01562500 </v>
   <v>       0.03125000 </v>
   <v>       0.03125000 </v>
   <v>       0.01562500 </v>
   <v>       0.01562500 </v>
   <v>       0.03125000 </v>
   <v>       0.03125000 </v>
   <v>       0.01562500 </v>
   <v>       0.01562500 </v>
   <v>       0.03125000 </v>
   <v>       0.01562500 </v>
   <v>       0.01562500 </v>
   <v>       0.01562500 </v>
   <v>       0.00390625 </v>
   <v>       0.01562500 </v>
   <v>       0.01562500 </v>
   <v>       0.00781250 </v>
   <v>       0.00781250 </v>
   <v>       0.01562500 </v>
   <v>       0.01562500 </v>
   <v>       0.01562500 </v>
   <v>       0.03125000 </v>
   <v>       0.01562500 </v>
   <v>       0.01562500 </v>
   <v>       0.03125000 </v>
   <v>       0.01562500 </v>
   <v>       0.01562500 </v>
   <v>       0.01562500 </v>
   <v>       0.00390625 </v>
   <v>       0.00781250 </v>
   <v>       0.01562500 </v>
   <v>       0.01562500 </v>
   <v>       0.01562500 </v>
   <v>       0.01562500 </v>
   <v>       0.00390625 </v>
   <v>       0.00781250 </v>
   <v>       0.00390625 </v>
  </varray>
 </kpoints>
 <parameters>
  <separator name="general" >
   <i type="string" name="SYSTEM">unknown system</i>
   <i type="logical" name="LCOMPAT"> F  </i>
  </separator>
  <separator name="electronic" >
   <i type="string" name="PREC">normal</i>
   <i name="ENMAX">    350.00000000</i>
   <i name="ENAUG">    322.06900000</i>
   <i name="EDIFF">      0.00040000</i>
   <i type="int" name="IALGO">    38</i>
   <i type="int" name="IWAVPR">    11</i>
   <i type="int" name="NBANDS">     8</i>
   <i name="NELECT">      8.00000000</i>
   <i type="int" name="TURBO">     0</i>
   <i type="int" name="IRESTART">     0</i>
   <i type="int" name="NREBOOT">     0</i>
   <i type="int" name="NMIN">     0</i>
   <i name="EREF">      0.00000000</i>
   <separator name="electronic smearing" >
    <i type="int" name="ISMEAR">     0</i>
    <i name="SIGMA">      0.20000000</i>
    <i name="KSPACING">      0.50000000</i>
    <i type="logical" name="KGAMMA"> T  </i>
   </separator>
   <separator name="electronic projectors" >
    <i type="logical" name="LREAL"> F  </i>
    <v name="ROPT">      0.00000000</v>
    <i type="int" name="LMAXPAW">  -100</i>
    <i type="int" name="LMAXMIX">     2</i>
    <i type="logical" name="NLSPLINE"> F  </i>
   </separator>
   <separator name="electronic startup" >
    <i type="int" name="ISTART">     0</i>
    <i type="int" name="ICHARG">     2</i>
    <i type="int" name="INIWAV">     1</i>
   </separator>
   <separator name="electronic spin" >
    <i type="int" name="ISPIN">     1</i>
    <i type="logical" name="LNONCOLLINEAR"> F  </i>
    <v name="MAGMOM">      1.00000000      1.00000000</v>
    <i name="NUPDOWN">     -1.00000000</i>
    <i type="logical" name="LSORBIT"> F  </i>
    <v name="SAXIS">      0.00000000      0.00000000      1.00000000</v>
    <i type="logical" name="LSPIRAL"> F  </i>
    <v name="QSPIRAL">      0.00000000      0.00000000      0.00000000</v>
    <i type="logical" name="LZEROZ"> F  </i>
   </separator>
   <separator name="electronic exchange-correlation" >
    <i type="logical" name="LASPH"> F  </i>
    <i type="logical" name="LMETAGGA"> F  </i>
   </separator>
   <separator name="electronic convergence" >
    <i type="int" name="NELM">    60</i>
    <i type="int" name="NELMDL">    -5</i>
    <i type="int" name="NELMIN">     2</i>
    <i name="ENINI">    350.00000000</i>
    <separator name="electronic convergence detail" >
     <i type="logical" name="LDIAG"> T  </i>
     <i type="logical" name="LSUBROT"> F  </i>
     <i name="WEIMIN">      0.00100000</i>
     <i name="EBREAK">      0.00001250</i>
     <i name="DEPER">      0.30000000</i>
     <i type="int" name="NRMM">     4</i>
     <i name="TIME">      0.40000000</i>
    </separator>
   </separator>
   <separator name="electronic mixer" >
    <i name="AMIX">      0.40000000</i>
    <i name="BMIX">      1.00000000</i>
    <i name="AMIN">      0.10000000</i>
    <i name="AMIX_MAG">      1.60000000</i>
    <i name="BMIX_MAG">      1.00000000</i>
    <separator name="electronic mixer details" >
     <i type="int" name="IMIX">     4</i>
     <i type="logical" name="MIXFIRST"> F  </i>
     <i type="int" name="MAXMIX">   -45</i>
     <i name="WC">    100.00000000</i>
     <i type="int" name="INIMIX">     1</i>
     <i type="int" name="MIXPRE">     1</i>
     <i type="int" name="MREMOVE">     5</i>
    </separator>
   </separator>
   <separator name="electronic dipolcorrection" >
    <i type="logical" name="LDIPOL"> F  </i>
    <i type="logical" name="LMONO"> F  </i>
    <i type="int" name="IDIPOL">     0</i>
    <i name="EPSILON">      1.00000000</i>
    <v name="DIPOL">   -100.00000000   -100.00000000   -100.00000000</v>
    <i name="EFIELD">      0.00000000</i>
   </separator>
  </separator>
  <separator name="grids" >
   <i type="int" name="NGX">    18</i>
   <i type="int" name="NGY">    18</i>
   <i type="int" name="NGZ">    18</i>
   <i type="int" name="NGXF">    36</i>
   <i type="int" name="NGYF">    36</i>
   <i type="int" name="NGZF">    36</i>
   <i type="logical" name="ADDGRID"> F  </i>
  </separator>
  <separator name="ionic" >
   <i type="int" name="NSW">    15</i>
   <i type="int" name="IBRION">     2</i>
   <i type="int" name="MDALGO">     0</i>
   <i type="int" name="ISIF">     2</i>
   <i name="PSTRESS">      0.00000000</i>
   <i name="EDIFFG">     -0.01000000</i>
   <i type="int" name="NFREE">     1</i>
   <i name="POTIM">      0.50000000</i>
   <i name="SMASS">     -3.00000000</i>
   <i name="SCALEE">      1.00000000</i>
  </separator>
  <separator name="ionic md" >
   <i name="TEBEG">      0.00010000</i>
   <i name="TEEND">      0.00010000</i>
   <i type="int" name="NBLOCK">     1</i>
   <i type="int" name="KBLOCK">    15</i>
   <i type="int" name="NPACO">   256</i>
   <i name="APACO">     16.00000000</i>
  </separator>
  <separator name="symmetry" >
   <i type="int" name="ISYM">     2</i>
   <i name="SYMPREC">      0.00001000</i>
  </separator>
  <separator name="dos" >
   <i type="int" name="LORBIT">     0</i>
   <v name="RWIGS">     -1.00000000</v>
   <i type="int" name="NEDOS">   301</i>
   <i name="EMIN">     10.00000000</i>
   <i name="EMAX">    -10.00000000</i>
   <i name="EFERMI">      0.00000000</i>
  </separator>
  <separator name="writing" >
   <i type="int" name="NWRITE">     2</i>
   <i type="logical" name="LWAVE"> T  </i>
   <i type="logical" name="LDOWNSAMPLE"> F  </i>
   <i type="logical" name="LCHARG"> T  </i>
   <i type="logical" name="LPARD"> F  </i>
   <i type="logical" name="LVTOT"> F  </i>
   <i type="logical" name="LVHAR"> F  </i>
   <i type="logical" name="LELF"> F  </i>
   <i type="logical" name="LOPTICS"> F  </i>
   <v name="STM">      0.00000000      0.00000000      0.00000000      0.00000000      0.00000000      0.00000000      0.00000000</v>
  </separator>
  <separator name="performance" >
   <i type="int" name="NPAR">     8</i>
   <i type="int" name="NSIM">     4</i>
   <i type="int" name="NBLK">    -1</i>
   <i type="logical" name="LPLANE"> T  </i>
   <i type="logical" name="LSCALAPACK"> T  </i>
   <i type="logical" name="LSCAAWARE"> F  </i>
   <i type="logical" name="LSCALU"> F  </i>
   <i type="logical" name="LASYNC"> F  </i>
   <i type="logical" name="LORBITALREAL"> F  </i>
  </separator>
  <separator name="miscellaneous" >
   <i type="int" name="IDIOT">     3</i>
   <i type="int" name="ISPECIAL">     0</i>
   <i type="logical" name="LMUSIC"> F  </i>
   <v name="POMASS">     28.08500000</v>
   <v name="DARWINR">      0.00000000</v>
   <v name="DARWINV">      1.00000000</v>
   <i type="logical" name="LCORR"> T  </i>
  </separator>
  <i type="logical" name="GGA_COMPAT"> T  </i>
  <i type="logical" name="LBERRY"> F  </i>
  <i type="int" name="ICORELEVEL">     0</i>
  <i type="logical" name="LDAU"> F  </i>
  <i type="int" name="I_CONSTRAINED_M">     0</i>
  <separator name="electronic exchange-correlation" >
   <i type="string" name="GGA">--</i>
   <i type="int" name="VOSKOWN">     0</i>
   <i type="logical" name="LHFCALC"> F  </i>
   <i type="string" name="PRECFOCK"></i>
   <i type="logical" name="LSYMGRAD"> F  </i>
   <i type="logical" name="LHFONE"> F  </i>
   <i type="logical" name="LRHFCALC"> F  </i>
   <i type="logical" name="LTHOMAS"> F  </i>
   <i type="logical" name="LMODELHF"> F  </i>
   <i name="ENCUT4O">     -1.00000000</i>
   <i type="int" name="EXXOEP">     0</i>
   <i type="int" name="FOURORBIT">     0</i>
   <i name="AEXX">      0.00000000</i>
   <i name="HFALPHA">      0.00000000</i>
   <i name="MCALPHA">      0.00000000</i>
   <i name="ALDAX">      1.00000000</i>
   <i name="AGGAX">      1.00000000</i>
   <i name="ALDAC">      1.00000000</i>
   <i name="AGGAC">      1.00000000</i>
   <i type="int" name="NKREDX">     1</i>
   <i type="int" name="NKREDY">     1</i>
   <i type="int" name="NKREDZ">     1</i>
   <i type="logical" name="SHIFTRED"> F  </i>
   <i type="logical" name="ODDONLY"> F  </i>
   <i type="logical" name="EVENONLY"> F  </i>
   <i type="int" name="LMAXFOCK">     0</i>
   <i type="int" name="NMAXFOCKAE">     0</i>
   <i type="logical" name="LFOCKAEDFT"> F  </i>
   <i name="HFSCREEN">      0.00000000</i>
   <i name="HFSCREENC">      0.00000000</i>
   <i type="int" name="NBANDSGWLOW">     0</i>
  </separator>
  <separator name="vdW DFT" >
   <i type="logical" name="LUSE_VDW"> F  </i>
   <i name="Zab_VDW">     -0.84910000</i>
   <i name="PARAM1">      0.12340000</i>
   <i name="PARAM2">      1.00000000</i>
   <i name="PARAM3">      0.00000000</i>
  </separator>
  <separator name="model GW" >
   <i type="int" name="MODEL_GW">     0</i>
   <i name="MODEL_EPS0">      9.53476633</i>
   <i name="MODEL_ALPHA">      1.00000000</i>
  </separator>
  <separator name="linear response parameters" >
   <i type="logical" name="LEPSILON"> F  </i>
   <i type="logical" name="LRPA"> F  </i>
   <i type="logical" name="LNABLA"> F  </i>
   <i type="logical" name="LVEL"> F  </i>
   <i type="int" name="KINTER">     0</i>
   <i name="CSHIFT">      0.10000000</i>
   <i name="OMEGAMAX">     -1.00000000</i>
   <i name="DEG_THRESHOLD">      0.00200000</i>
   <i name="RTIME">     -0.10000000</i>
   <i name="WPLASMAI">      0.00000000</i>
   <v name="DFIELD">      0.00000000      0.00000000      0.00000000</v>
   <v name="WPLASMA">      0.00000000      0.00000000      0.00000000      0.00000000      0.00000000      0.00000000      0.00000000      0.00000000      0.00000000</v>
  </separator>
  <separator name="orbital magnetization" >
   <i type="logical" name="NUCIND"> F  </i>
   <v name="MAGPOS">      0.00000000      0.00000000      0.00000000</v>
   <i type="logical" name="LNICSALL"> T  </i>
   <i type="logical" name="ORBITALMAG"> F  </i>
   <i type="logical" name="LMAGBLOCH"> F  </i>
   <i type="logical" name="LCHIMAG"> F  </i>
   <i type="logical" name="LGAUGE"> T  </i>
   <i type="int" name="MAGATOM">     0</i>
   <v name="MAGDIPOL">      0.00000000      0.00000000      0.00000000</v>
   <v name="AVECCONST">      0.00000000      0.00000000      0.00000000</v>
  </separator>
  <separator name="response functions" >
   <i type="logical" name="LADDER"> F  </i>
   <i type="logical" name="LRPAFORCE"> F  </i>
   <i type="logical" name="LFXC"> F  </i>
   <i type="logical" name="LHARTREE"> T  </i>
   <i type="int" name="IBSE">     0</i>
   <v type="int" name="KPOINT">    -1     0     0     0</v>
   <i type="logical" name="LTCTE"> F  </i>
   <i type="logical" name="LTETE"> F  </i>
   <i type="logical" name="LTRIPLET"> F  </i>
   <i type="logical" name="LFXCEPS"> F  </i>
   <i type="logical" name="LFXHEG"> F  </i>
   <i type="int" name="NATURALO">     2</i>
   <i type="logical" name="L2ORDER"> F  </i>
   <i type="logical" name="LMP2LT"> F  </i>
   <i type="logical" name="LUSEW"> F  </i>
   <i name="ENCUTGW">     -2.00000000</i>
   <i name="ENCUTGWSOFT">     -2.00000000</i>
   <i name="ENCUTLF">     -1.00000000</i>
   <i type="int" name="LMAXMP2">    -1</i>
   <i name="SCISSOR">      0.00000000</i>
   <i type="int" name="NOMEGA">     0</i>
   <i type="int" name="NOMEGAR">     0</i>
   <i type="int" name="NBANDSGW">    -1</i>
   <i type="int" name="NBANDSO">    -1</i>
   <i type="int" name="NBANDSV">    -1</i>
   <i type="int" name="NELM">     1</i>
   <i type="int" name="NELMHF">     1</i>
   <i type="int" name="DIM">     3</i>
   <i type="int" name="ANTIRES">     0</i>
   <i name="OMEGAMAX">    -30.00000000</i>
   <i name="OMEGAMIN">    -30.00000000</i>
   <i name="OMEGATL">   -200.00000000</i>
   <i type="int" name="OMEGAGRID">   140</i>
   <i name="CSHIFT">     -0.10000000</i>
   <i type="logical" name="SELFENERGY"> F  </i>
   <i type="logical" name="LSPECTRAL"> F  </i>
   <i type="logical" name="LSPECTRALGW"> F  </i>
   <i type="logical" name="LSINGLES"> F  </i>
   <i type="logical" name="LFERMIGW"> F  </i>
   <i type="logical" name="ODDONLYGW"> F  </i>
   <i type="logical" name="EVENONLYGW"> F  </i>
   <i type="int" name="NKREDLFX">     1</i>
   <i type="int" name="NKREDLFY">     1</i>
   <i type="int" name="NKREDLFZ">     1</i>
   <i type="int" name="MAXMEM">  2800</i>
   <i type="int" name="TELESCOPE">     0</i>
   <i type="int" name="TAUPAR">     1</i>
   <i type="int" name="OMEGAPAR">    -1</i>
   <i name="LAMBDA">      1.00000000</i>
  </separator>
  <separator name="External order field" >
   <i name="OFIELD_KAPPA">      0.00000000</i>
   <v name="OFIELD_K">      0.00000000      0.00000000      0.00000000</v>
   <i name="OFIELD_Q6_NEAR">      0.00000000</i>
   <i name="OFIELD_Q6_FAR">      0.00000000</i>
   <i name="OFIELD_A">      0.00000000</i>
  </separator>
 </parameters>
 <atominfo>
  <atoms>       2 </atoms>
  <types>       1 </types>
  <array name="atoms" >
   <dimension dim="1">ion</dimension>
   <field type="string">element</field>
   <field type="int">atomtype</field>
   <set>
    <rc><c>Si</c><c>   1</c></rc>
    <rc><c>Si</c><c>   1</c></rc>
   </set>
  </array>
  <array name="atomtypes" >
   <dimension dim="1">type</dimension>
   <field type="int">atomspertype</field>
   <field type="string">element</field>
   <field>mass</field>
   <field>valence</field>
   <field type="string">pseudopotential</field>
   <set>
    <rc><c>   2</c><c>Si</c><c>     28.08500000</c><c>      4.00000000</c><c> PAW_PBE Si 05Jan2001                   </c></rc>
   </set>
  </array>
 </atominfo>
 <structure name="initialpos" >
  <crystal>
   <varray name="basis" >
    <v>      -2.40577800       2.40577800       1.37283300 </v>
    <v>       2.40577800      -2.40577800       1.37283300 </v>
    <v>       2.40577800       2.40577800      -1.37283300 </v>
   </varray>
   <i name="volume">     31.78255445 </i>
   <varray name="rec_basis" >
    <v>      -0.00000000       0.20783298       0.36421036 </v>
    <v>       0.20783298      -0.00000000       0.36421036 </v>
    <v>       0.20783298       0.20783298      -0.00000000 </v>
   </varray>
  </crystal>
  <varray name="positions" >
   <v>       0.00000000       0.00000000       0.00000000 </v>
   <v>       0.25000000       0.75000000       0.50000000 </v>
  </varray>
 </structure>
 <calculation>
  <scstep>
   <time name="dav">    0.72    0.72</time>
   <time name="total">    0.77    0.79</time>
   <energy>
    <i name="alphaZ">      4.23667373 </i>
    <i name="ewald">   -261.82229082 </i>
    <i name="hartreedc">     -2.48831315 </i>
    <i name="XCdc">    -18.00908407 </i>
    <i name="pawpsdc">     65.95520812 </i>
    <i name="pawaedc">    -30.76852678 </i>
    <i name="eentropy">     -0.00814135 </i>
    <i name="bandstr">     37.27862908 </i>
    <i name="atom">    206.13125414 </i>
    <i name="e_fr_energy">      0.50540890 </i>
    <i name="e_wo_entrp">      0.51355025 </i>
    <i name="e_0_energy">      0.50947957 </i>
   </energy>
  </scstep>
  <scstep>
   <time name="dav">    1.04    1.05</time>
   <time name="total">    1.04    1.05</time>
   <energy>
    <i name="e_fr_energy">    -10.15309053 </i>
    <i name="e_wo_entrp">    -10.13585549 </i>
    <i name="e_0_energy">    -10.14447301 </i>
   </energy>
  </scstep>
  <scstep>
   <time name="dav">    0.94    0.95</time>
   <time name="total">    0.94    0.95</time>
   <energy>
    <i name="e_fr_energy">    -10.27860979 </i>
    <i name="e_wo_entrp">    -10.26091337 </i>
    <i name="e_0_energy">    -10.26976158 </i>
   </energy>
  </scstep>
  <scstep>
   <time name="dav">    1.04    1.05</time>
   <time name="total">    1.04    1.05</time>
   <energy>
    <i name="e_fr_energy">    -10.27893513 </i>
    <i name="e_wo_entrp">    -10.26123842 </i>
    <i name="e_0_energy">    -10.27008677 </i>
   </energy>
  </scstep>
  <scstep>
   <time name="dav">    1.02    1.03</time>
   <time name="total">    1.08    1.09</time>
   <energy>
    <i name="e_fr_energy">    -10.27893588 </i>
    <i name="e_wo_entrp">    -10.26123920 </i>
    <i name="e_0_energy">    -10.27008754 </i>
   </energy>
  </scstep>
  <scstep>
   <time name="dav">    0.87    0.87</time>
   <time name="total">    0.96    0.97</time>
   <energy>
    <i name="e_fr_energy">    -10.26912035 </i>
    <i name="e_wo_entrp">    -10.25151542 </i>
    <i name="e_0_energy">    -10.26031789 </i>
   </energy>
  </scstep>
  <scstep>
   <time name="dav">    0.95    0.95</time>
   <time name="total">    1.05    1.06</time>
   <energy>
    <i name="e_fr_energy">    -10.26307641 </i>
    <i name="e_wo_entrp">    -10.24559411 </i>
    <i name="e_0_energy">    -10.25433526 </i>
   </energy>
  </scstep>
  <scstep>
   <time name="dav">    0.56    0.56</time>
   <time name="total">    0.60    0.62</time>
   <energy>
    <i name="alphaZ">      4.23667373 </i>
    <i name="ewald">   -261.82229082 </i>
    <i name="hartreedc">     -2.69192496 </i>
    <i name="XCdc">    -17.78788914 </i>
    <i name="pawpsdc">     69.56884061 </i>
    <i name="pawaedc">    -34.46424389 </i>
    <i name="eentropy">     -0.01751054 </i>
    <i name="bandstr">     26.58408075 </i>
    <i name="atom">    206.13125414 </i>
    <i name="e_fr_energy">    -10.26301011 </i>
    <i name="e_wo_entrp">    -10.24549958 </i>
    <i name="e_0_energy">    -10.25425484 </i>
   </energy>
  </scstep>
  <structure>
   <crystal>
    <varray name="basis" >
     <v>      -2.40577800       2.40577800       1.37283300 </v>
     <v>       2.40577800      -2.40577800       1.37283300 </v>
     <v>       2.40577800       2.40577800      -1.37283300 </v>
    </varray>
    <i name="volume">     31.78255445 </i>
    <varray name="rec_basis" >
     <v>      -0.00000000       0.20783298       0.36421036 </v>
     <v>       0.20783298      -0.00000000       0.36421036 </v>
     <v>       0.20783298       0.20783298      -0.00000000 </v>
    </varray>
   </crystal>
   <varray name="positions" >
    <v>       0.00000000       0.00000000       0.00000000 </v>
    <v>       0.25000000       0.75000000       0.50000000 </v>
   </varray>
  </structure>
  <varray name="forces" >
   <v>       0.00000000      -0.00000000       0.00000000 </v>
   <v>      -0.00000000       0.00000000      -0.00000000 </v>
  </varray>
  <varray name="stress" >
   <v>     -28.52897095       0.00000000       0.00000000 </v>
   <v>       0.00000000     -28.52897095       0.00000000 </v>
   <v>       0.00000000       0.00000000     -36.18236141 </v>
  </varray>
  <energy>
   <i name="e_fr_energy">    -10.26301011 </i>
   <i name="e_wo_entrp">    -10.25425484 </i>
   <i name="e_0_energy">     -0.01751054 </i>
  </energy>
  <time name="totalsc">    9.06    9.84</time>
  <eigenvalues>
   <array>
    <dimension dim="1">band</dimension>
    <dimension dim="2">kpoint</dimension>
    <dimension dim="3">spin</dimension>
    <field>eigene</field>
    <field>occ</field>
    <set>
     <set comment="spin 1">
      <set comment="kpoint 1">
       <r>   -4.2585    1.0000 </r>
       <r>    4.5918    1.0000 </r>
       <r>    6.7946    1.0000 </r>
       <r>    8.5178    0.6981 </r>
       <r>   11.9193    0.0000 </r>
       <r>   13.3128    0.0000 </r>
       <r>   13.8045    0.0000 </r>
       <r>   16.0901    0.0000 </r>
      </set>
      <set comment="kpoint 2">
       <r>   -3.0865    1.0000 </r>
       <r>    4.2606    1.0000 </r>
       <r>    6.9990    1.0000 </r>
       <r>    8.9642    0.0042 </r>
       <r>   10.5757    0.0000 </r>
       <r>   10.8739    0.0000 </r>
       <r>   13.4987    0.0000 </r>
       <r>   14.4519    0.0000 </r>
      </set>
      <set comment="kpoint 3">
       <r>   -1.1669    1.0000 </r>
       <r>    4.2989    1.0000 </r>
       <r>    5.4077    1.0000 </r>
       <r>    7.1686    1.0000 </r>
       <r>    8.4987    0.7435 </r>
       <r>   11.5562    0.0000 </r>
       <r>   13.1393    0.0000 </r>
       <r>   13.7230    0.0000 </r>
      </set>
      <set comment="kpoint 4">
       <r>    0.9987    1.0000 </r>
       <r>    2.0773    1.0000 </r>
       <r>    5.5914    1.0000 </r>
       <r>    6.1977    1.0000 </r>
       <r>    8.3678    0.9429 </r>
       <r>   10.5126    0.0000 </r>
       <r>   13.0828    0.0000 </r>
       <r>   14.0240    0.0000 </r>
      </set>
      <set comment="kpoint 5">
       <r>   -4.6517    1.0000 </r>
       <r>    5.2652    1.0000 </r>
       <r>    5.9972    1.0000 </r>
       <r>    8.2010    0.9971 </r>
       <r>   11.0706    0.0000 </r>
       <r>   14.7998    0.0000 </r>
       <r>   16.7513    0.0000 </r>
       <r>   17.1690    0.0000 </r>
      </set>
      <set comment="kpoint 6">
       <r>   -1.3530    1.0000 </r>
       <r>    4.3728    1.0000 </r>
       <r>    6.1668    1.0000 </r>
       <r>    6.4580    1.0000 </r>
       <r>    9.5734    0.0000 </r>
       <r>   11.6371    0.0000 </r>
       <r>   12.7025    0.0000 </r>
       <r>   12.9909    0.0000 </r>
      </set>
      <set comment="kpoint 7">
       <r>    0.9699    1.0000 </r>
       <r>    2.7772    1.0000 </r>
       <r>    4.1584    1.0000 </r>
       <r>    5.7439    1.0000 </r>
       <r>    9.7459    0.0000 </r>
       <r>   11.5093    0.0000 </r>
       <r>   12.6008    0.0000 </r>
       <r>   14.7081    0.0000 </r>
      </set>
      <set comment="kpoint 8">
       <r>   -0.2369    1.0000 </r>
       <r>    2.6257    1.0000 </r>
       <r>    4.6449    1.0000 </r>
       <r>    7.0823    1.0000 </r>
       <r>    9.0730    0.0003 </r>
       <r>   11.7949    0.0000 </r>
       <r>   13.6211    0.0000 </r>
       <r>   14.5534    0.0000 </r>
      </set>
      <set comment="kpoint 9">
       <r>   -2.3225    1.0000 </r>
       <r>    2.1490    1.0000 </r>
       <r>    7.4508    1.0000 </r>
       <r>    8.5361    0.6515 </r>
       <r>   10.0810    0.0000 </r>
       <r>   11.6452    0.0000 </r>
       <r>   12.7885    0.0000 </r>
       <r>   15.0832    0.0000 </r>
      </set>
      <set comment="kpoint 10">
       <r>   -3.6802    1.0000 </r>
       <r>    2.3170    1.0000 </r>
       <r>    7.2995    1.0000 </r>
       <r>    9.4239    0.0000 </r>
       <r>   11.9090    0.0000 </r>
       <r>   13.2132    0.0000 </r>
       <r>   14.2373    0.0000 </r>
       <r>   14.9759    0.0000 </r>
      </set>
      <set comment="kpoint 11">
       <r>   -4.2650    1.0000 </r>
       <r>    3.1802    1.0000 </r>
       <r>    6.1361    1.0000 </r>
       <r>    9.4199    0.0000 </r>
       <r>   12.8955    0.0000 </r>
       <r>   13.0947    0.0000 </r>
       <r>   15.9582    0.0000 </r>
       <r>   16.4010    0.0000 </r>
      </set>
      <set comment="kpoint 12">
       <r>   -4.0657    1.0000 </r>
       <r>    4.3441    1.0000 </r>
       <r>    5.4339    1.0000 </r>
       <r>    9.9714    0.0000 </r>
       <r>   12.4676    0.0000 </r>
       <r>   12.6555    0.0000 </r>
       <r>   13.5007    0.0000 </r>
       <r>   15.3817    0.0000 </r>
      </set>
      <set comment="kpoint 13">
       <r>    0.9937    1.0000 </r>
       <r>    1.0938    1.0000 </r>
       <r>    4.4312    1.0000 </r>
       <r>    6.9974    1.0000 </r>
       <r>    9.8834    0.0000 </r>
       <r>   10.6644    0.0000 </r>
       <r>   14.7951    0.0000 </r>
       <r>   15.5117    0.0000 </r>
      </set>
      <set comment="kpoint 14">
       <r>   -1.1850    1.0000 </r>
       <r>    0.3136    1.0000 </r>
       <r>    7.7065    1.0000 </r>
       <r>    8.5015    0.7369 </r>
       <r>   10.0085    0.0000 </r>
       <r>   11.3517    0.0000 </r>
       <r>   12.6912    0.0000 </r>
       <r>   14.0844    0.0000 </r>
      </set>
      <set comment="kpoint 15">
       <r>   -2.7212    1.0000 </r>
       <r>    0.2989    1.0000 </r>
       <r>    8.1265    0.9995 </r>
       <r>   10.3383    0.0000 </r>
       <r>   10.6496    0.0000 </r>
       <r>   12.7088    0.0000 </r>
       <r>   13.4596    0.0000 </r>
       <r>   13.5058    0.0000 </r>
      </set>
      <set comment="kpoint 16">
       <r>   -3.4946    1.0000 </r>
       <r>    1.0270    1.0000 </r>
       <r>    6.8316    1.0000 </r>
       <r>   10.3440    0.0000 </r>
       <r>   10.9650    0.0000 </r>
       <r>   14.3829    0.0000 </r>
       <r>   15.7623    0.0000 </r>
       <r>   16.2803    0.0000 </r>
      </set>
      <set comment="kpoint 17">
       <r>   -3.4886    1.0000 </r>
       <r>    2.4541    1.0000 </r>
       <r>    5.5890    1.0000 </r>
       <r>   10.6257    0.0000 </r>
       <r>   11.2691    0.0000 </r>
       <r>   12.6617    0.0000 </r>
       <r>   14.5360    0.0000 </r>
       <r>   15.4353    0.0000 </r>
      </set>
      <set comment="kpoint 18">
       <r>   -2.7048    1.0000 </r>
       <r>    4.1171    1.0000 </r>
       <r>    5.3616    1.0000 </r>
       <r>    8.0738    0.9999 </r>
       <r>   10.9998    0.0000 </r>
       <r>   12.8711    0.0000 </r>
       <r>   13.2454    0.0000 </r>
       <r>   13.2970    0.0000 </r>
      </set>
      <set comment="kpoint 19">
       <r>   -1.3900    1.0000 </r>
       <r>   -1.3900    1.0000 </r>
       <r>    9.2389    0.0000 </r>
       <r>    9.2389    0.0000 </r>
       <r>   11.6461    0.0000 </r>
       <r>   11.6461    0.0000 </r>
       <r>   13.0580    0.0000 </r>
       <r>   13.0580    0.0000 </r>
      </set>
      <set comment="kpoint 20">
       <r>   -2.3467    1.0000 </r>
       <r>   -0.8325    1.0000 </r>
       <r>    7.8842    1.0000 </r>
       <r>    9.2719    0.0000 </r>
       <r>   11.4544    0.0000 </r>
       <r>   12.8208    0.0000 </r>
       <r>   15.8195    0.0000 </r>
       <r>   15.9569    0.0000 </r>
      </set>
      <set comment="kpoint 21">
       <r>   -2.5321    1.0000 </r>
       <r>    0.4726    1.0000 </r>
       <r>    6.4393    1.0000 </r>
       <r>    9.1573    0.0000 </r>
       <r>   11.1561    0.0000 </r>
       <r>   12.9037    0.0000 </r>
       <r>   14.3290    0.0000 </r>
       <r>   15.5691    0.0000 </r>
      </set>
      <set comment="kpoint 22">
       <r>   -1.9450    1.0000 </r>
       <r>    2.4483    1.0000 </r>
       <r>    5.5847    1.0000 </r>
       <r>    7.4151    1.0000 </r>
       <r>    9.7657    0.0000 </r>
       <r>   12.2091    0.0000 </r>
       <r>   14.1743    0.0000 </r>
       <r>   15.0699    0.0000 </r>
      </set>
      <set comment="kpoint 23">
       <r>   -0.6125    1.0000 </r>
       <r>    3.7436    1.0000 </r>
       <r>    5.2657    1.0000 </r>
       <r>    5.8661    1.0000 </r>
       <r>    9.0336    0.0009 </r>
       <r>   11.3058    0.0000 </r>
       <r>   11.9240    0.0000 </r>
       <r>   15.1648    0.0000 </r>
      </set>
      <set comment="kpoint 24">
       <r>   -1.2104    1.0000 </r>
       <r>   -1.2009    1.0000 </r>
       <r>    7.6253    1.0000 </r>
       <r>    7.6777    1.0000 </r>
       <r>   11.0742    0.0000 </r>
       <r>   13.5209    0.0000 </r>
       <r>   14.3741    0.0000 </r>
       <r>   14.4380    0.0000 </r>
      </set>
      <set comment="kpoint 25">
       <r>   -0.8157    1.0000 </r>
       <r>    0.6662    1.0000 </r>
       <r>    6.3568    1.0000 </r>
       <r>    7.1787    1.0000 </r>
       <r>    8.3166    0.9739 </r>
       <r>   11.7914    0.0000 </r>
       <r>   15.3269    0.0000 </r>
       <r>   16.5017    0.0000 </r>
      </set>
      <set comment="kpoint 26">
       <r>    0.2954    1.0000 </r>
       <r>    2.8522    1.0000 </r>
       <r>    4.0481    1.0000 </r>
       <r>    6.3900    1.0000 </r>
       <r>    8.6185    0.4235 </r>
       <r>   10.4954    0.0000 </r>
       <r>   12.9218    0.0000 </r>
       <r>   16.5540    0.0000 </r>
      </set>
      <set comment="kpoint 27">
       <r>    0.6153    1.0000 </r>
       <r>    2.4670    1.0000 </r>
       <r>    6.2358    1.0000 </r>
       <r>    6.7144    1.0000 </r>
       <r>    7.5675    1.0000 </r>
       <r>   10.0941    0.0000 </r>
       <r>   11.5780    0.0000 </r>
       <r>   15.4319    0.0000 </r>
      </set>
      <set comment="kpoint 28">
       <r>    1.3902    1.0000 </r>
       <r>    1.6605    1.0000 </r>
       <r>    3.6499    1.0000 </r>
       <r>    7.2560    1.0000 </r>
       <r>    7.7314    1.0000 </r>
       <r>   10.0589    0.0000 </r>
       <r>   14.8230    0.0000 </r>
       <r>   15.6007    0.0000 </r>
      </set>
      <set comment="kpoint 29">
       <r>    0.3092    1.0000 </r>
       <r>    3.4731    1.0000 </r>
       <r>    4.8635    1.0000 </r>
       <r>    7.0858    1.0000 </r>
       <r>    8.1694    0.9986 </r>
       <r>    9.9823    0.0000 </r>
       <r>   11.6479    0.0000 </r>
       <r>   14.1543    0.0000 </r>
      </set>
      <set comment="kpoint 30">
       <r>   -1.7301    1.0000 </r>
       <r>    5.5418    1.0000 </r>
       <r>    6.9467    1.0000 </r>
       <r>    7.0479    1.0000 </r>
       <r>    8.2744    0.9875 </r>
       <r>   10.7202    0.0000 </r>
       <r>   11.5544    0.0000 </r>
       <r>   13.4210    0.0000 </r>
      </set>
      <set comment="kpoint 31">
       <r>   -1.9186    1.0000 </r>
       <r>    6.2882    1.0000 </r>
       <r>    6.8781    1.0000 </r>
       <r>    7.3961    1.0000 </r>
       <r>    8.6983    0.2243 </r>
       <r>   10.3495    0.0000 </r>
       <r>   11.5756    0.0000 </r>
       <r>   11.7577    0.0000 </r>
      </set>
      <set comment="kpoint 32">
       <r>   -3.4700    1.0000 </r>
       <r>    6.2714    1.0000 </r>
       <r>    6.8949    1.0000 </r>
       <r>    8.9247    0.0092 </r>
       <r>   10.5720    0.0000 </r>
       <r>   10.9529    0.0000 </r>
       <r>   12.0379    0.0000 </r>
       <r>   13.5307    0.0000 </r>
      </set>
      <set comment="kpoint 33">
       <r>   -4.4518    1.0000 </r>
       <r>    6.6251    1.0000 </r>
       <r>    6.6251    1.0000 </r>
       <r>    7.2051    1.0000 </r>
       <r>   10.7913    0.0000 </r>
       <r>   13.9660    0.0000 </r>
       <r>   14.1759    0.0000 </r>
       <r>   16.1562    0.0000 </r>
      </set>
      <set comment="kpoint 34">
       <r>   -0.4174    1.0000 </r>
       <r>    2.4952    1.0000 </r>
       <r>    5.7267    1.0000 </r>
       <r>    5.8531    1.0000 </r>
       <r>   10.6140    0.0000 </r>
       <r>   12.5355    0.0000 </r>
       <r>   13.7517    0.0000 </r>
       <r>   14.1149    0.0000 </r>
      </set>
      <set comment="kpoint 35">
       <r>    1.7116    1.0000 </r>
       <r>    2.5444    1.0000 </r>
       <r>    3.6651    1.0000 </r>
       <r>    4.4112    1.0000 </r>
       <r>   11.4450    0.0000 </r>
       <r>   13.3883    0.0000 </r>
       <r>   13.7816    0.0000 </r>
       <r>   13.9007    0.0000 </r>
      </set>
      <set comment="kpoint 36">
       <r>   -3.8800    1.0000 </r>
       <r>    3.0439    1.0000 </r>
       <r>    4.3266    1.0000 </r>
       <r>   10.8424    0.0000 </r>
       <r>   11.5561    0.0000 </r>
       <r>   14.1640    0.0000 </r>
       <r>   15.5924    0.0000 </r>
       <r>   15.9841    0.0000 </r>
      </set>
      <set comment="kpoint 37">
       <r>    0.8747    1.0000 </r>
       <r>    0.8747    1.0000 </r>
       <r>    5.6138    1.0000 </r>
       <r>    5.6138    1.0000 </r>
       <r>   11.9049    0.0000 </r>
       <r>   11.9049    0.0000 </r>
       <r>   13.7484    0.0000 </r>
       <r>   13.7484    0.0000 </r>
      </set>
      <set comment="kpoint 38">
       <r>   -3.1134    1.0000 </r>
       <r>    1.3361    1.0000 </r>
       <r>    4.5902    1.0000 </r>
       <r>    8.8103    0.0606 </r>
       <r>   12.7941    0.0000 </r>
       <r>   14.8640    0.0000 </r>
       <r>   15.5368    0.0000 </r>
       <r>   16.8675    0.0000 </r>
      </set>
      <set comment="kpoint 39">
       <r>   -2.9158    1.0000 </r>
       <r>    2.4730    1.0000 </r>
       <r>    3.8464    1.0000 </r>
       <r>    8.9031    0.0137 </r>
       <r>   10.9390    0.0000 </r>
       <r>   14.2684    0.0000 </r>
       <r>   15.8194    0.0000 </r>
       <r>   16.0110    0.0000 </r>
      </set>
      <set comment="kpoint 40">
       <r>   -1.9727    1.0000 </r>
       <r>   -0.4740    1.0000 </r>
       <r>    5.6272    1.0000 </r>
       <r>    7.0513    1.0000 </r>
       <r>   13.6272    0.0000 </r>
       <r>   14.2629    0.0000 </r>
       <r>   15.6847    0.0000 </r>
       <r>   16.4342    0.0000 </r>
      </set>
      <set comment="kpoint 41">
       <r>   -1.9680    1.0000 </r>
       <r>    0.9619    1.0000 </r>
       <r>    4.2543    1.0000 </r>
       <r>    7.0410    1.0000 </r>
       <r>   10.4545    0.0000 </r>
       <r>   15.4635    0.0000 </r>
       <r>   16.0389    0.0000 </r>
       <r>   17.8794    0.0000 </r>
      </set>
      <set comment="kpoint 42">
       <r>   -1.1953    1.0000 </r>
       <r>    2.6213    1.0000 </r>
       <r>    4.0568    1.0000 </r>
       <r>    6.6114    1.0000 </r>
       <r>    7.9884    1.0000 </r>
       <r>   13.4690    0.0000 </r>
       <r>   14.7588    0.0000 </r>
       <r>   16.7626    0.0000 </r>
      </set>
      <set comment="kpoint 43">
       <r>   -0.6701    1.0000 </r>
       <r>   -0.6498    1.0000 </r>
       <r>    5.4365    1.0000 </r>
       <r>    5.4825    1.0000 </r>
       <r>   10.2857    0.0000 </r>
       <r>   15.5797    0.0000 </r>
       <r>   16.8614    0.0000 </r>
       <r>   17.2953    0.0000 </r>
      </set>
      <set comment="kpoint 44">
       <r>   -0.0885    1.0000 </r>
       <r>    1.3299    1.0000 </r>
       <r>    4.5774    1.0000 </r>
       <r>    5.7791    1.0000 </r>
       <r>    6.7717    1.0000 </r>
       <r>   13.6025    0.0000 </r>
       <r>   16.4258    0.0000 </r>
       <r>   17.8526    0.0000 </r>
      </set>
      <set comment="kpoint 45">
       <r>    1.1281    1.0000 </r>
       <r>    2.7206    1.0000 </r>
       <r>    4.1972    1.0000 </r>
       <r>    4.9477    1.0000 </r>
       <r>    7.2713    1.0000 </r>
       <r>   11.6069    0.0000 </r>
       <r>   12.8162    0.0000 </r>
       <r>   16.6701    0.0000 </r>
      </set>
      <set comment="kpoint 46">
       <r>    1.8222    1.0000 </r>
       <r>    2.5440    1.0000 </r>
       <r>    3.5161    1.0000 </r>
       <r>    5.7116    1.0000 </r>
       <r>    5.8668    1.0000 </r>
       <r>   11.8261    0.0000 </r>
       <r>   14.2722    0.0000 </r>
       <r>   15.1627    0.0000 </r>
      </set>
      <set comment="kpoint 47">
       <r>   -0.0393    1.0000 </r>
       <r>    4.5066    1.0000 </r>
       <r>    5.5444    1.0000 </r>
       <r>    6.3879    1.0000 </r>
       <r>    7.3027    1.0000 </r>
       <r>   10.4954    0.0000 </r>
       <r>   11.4825    0.0000 </r>
       <r>   13.0949    0.0000 </r>
      </set>
      <set comment="kpoint 48">
       <r>   -2.1078    1.0000 </r>
       <r>    7.5919    1.0000 </r>
       <r>    7.5919    1.0000 </r>
       <r>    7.8086    1.0000 </r>
       <r>    7.9814    1.0000 </r>
       <r>    9.5465    0.0000 </r>
       <r>   11.2680    0.0000 </r>
       <r>   11.2680    0.0000 </r>
      </set>
      <set comment="kpoint 49">
       <r>   -2.3557    1.0000 </r>
       <r>    1.5259    1.0000 </r>
       <r>    2.9722    1.0000 </r>
       <r>    6.7248    1.0000 </r>
       <r>   13.8409    0.0000 </r>
       <r>   14.3232    0.0000 </r>
       <r>   16.6325    0.0000 </r>
       <r>   18.2609    0.0000 </r>
      </set>
      <set comment="kpoint 50">
       <r>   -1.2348    1.0000 </r>
       <r>    0.2033    1.0000 </r>
       <r>    3.5457    1.0000 </r>
       <r>    4.9417    1.0000 </r>
       <r>   13.8489    0.0000 </r>
       <r>   13.9596    0.0000 </r>
       <r>   17.9151    0.0000 </r>
       <r>   19.0033    0.0000 </r>
      </set>
      <set comment="kpoint 51">
       <r>   -1.0407    1.0000 </r>
       <r>    1.3300    1.0000 </r>
       <r>    2.8095    1.0000 </r>
       <r>    5.1154    1.0000 </r>
       <r>    9.9454    0.0000 </r>
       <r>   16.8423    0.0000 </r>
       <r>   18.1785    0.0000 </r>
       <r>   18.5611    0.0000 </r>
      </set>
      <set comment="kpoint 52">
       <r>    0.1865    1.0000 </r>
       <r>    0.2223    1.0000 </r>
       <r>    3.5377    1.0000 </r>
       <r>    3.5648    1.0000 </r>
       <r>    9.7720    0.0000 </r>
       <r>   17.0015    0.0000 </r>
       <r>   19.0794    0.0000 </r>
       <r>   19.3266    0.0000 </r>
      </set>
      <set comment="kpoint 53">
       <r>    0.9465    1.0000 </r>
       <r>    1.8678    1.0000 </r>
       <r>    3.3689    1.0000 </r>
       <r>    4.2399    1.0000 </r>
       <r>    6.2060    1.0000 </r>
       <r>   15.3575    0.0000 </r>
       <r>   16.4945    0.0000 </r>
       <r>   17.8308    0.0000 </r>
      </set>
      <set comment="kpoint 54">
       <r>    1.9476    1.0000 </r>
       <r>    3.3317    1.0000 </r>
       <r>    4.1084    1.0000 </r>
       <r>    4.6218    1.0000 </r>
       <r>    4.6218    1.0000 </r>
       <r>   13.6926    0.0000 </r>
       <r>   14.0855    0.0000 </r>
       <r>   14.0855    0.0000 </r>
      </set>
      <set comment="kpoint 55">
       <r>   -0.1776    1.0000 </r>
       <r>    0.7575    1.0000 </r>
       <r>    2.2678    1.0000 </r>
       <r>    3.1894    1.0000 </r>
       <r>   13.6401    0.0000 </r>
       <r>   13.6667    0.0000 </r>
       <r>   20.2640    0.0000 </r>
       <r>   20.8807    0.0000 </r>
      </set>
      <set comment="kpoint 56">
       <r>    0.9151    1.0000 </r>
       <r>    0.9766    1.0000 </r>
       <r>    2.4565    1.0000 </r>
       <r>    2.4565    1.0000 </r>
       <r>    9.5978    0.0000 </r>
       <r>   17.3283    0.0000 </r>
       <r>   19.9400    0.0000 </r>
       <r>   19.9401    0.0000 </r>
      </set>
     </set>
    </set>
   </array>
  </eigenvalues>
  <separator name="orbital magnetization" >
   <v name="MAGDIPOLOUT">      0.00000000      0.00000000      0.00000000</v>
  </separator>
  <dos>
   <i name="efermi">      8.59118768 </i>
   <total>
    <array>
     <dimension dim="1">gridpoints</dimension>
     <dimension dim="2">spin</dimension>
     <field>energy</field>
     <field>total</field>
     <field>integrated</field>
     <set>
      <set comment="spin 1">
       <r>    -6.6517     0.0000     0.0000 </r>
       <r>    -6.5533     0.0000     0.0000 </r>
       <r>    -6.4548     0.0000     0.0000 </r>
       <r>    -6.3564     0.0000     0.0000 </r>
       <r>    -6.2580     0.0000     0.0000 </r>
       <r>    -6.1595     0.0000     0.0000 </r>
       <r>    -6.0611     0.0000     0.0000 </r>
       <r>    -5.9626     0.0000     0.0000 </r>
       <r>    -5.8642     0.0000     0.0000 </r>
       <r>    -5.7658     0.0000     0.0000 </r>
       <r>    -5.6673     0.0000     0.0000 </r>
       <r>    -5.5689     0.0000     0.0000 </r>
       <r>    -5.4704     0.0000     0.0000 </r>
       <r>    -5.3720     0.0000     0.0000 </r>
       <r>    -5.2735     0.0000     0.0000 </r>
       <r>    -5.1751     0.0000     0.0000 </r>
       <r>    -5.0767     0.0002     0.0000 </r>
       <r>    -4.9782     0.0015     0.0002 </r>
       <r>    -4.8798     0.0069     0.0008 </r>
       <r>    -4.7813     0.0208     0.0029 </r>
       <r>    -4.6829     0.0411     0.0069 </r>
       <r>    -4.5845     0.0589     0.0127 </r>
       <r>    -4.4860     0.0786     0.0205 </r>
       <r>    -4.3876     0.1217     0.0325 </r>
       <r>    -4.2891     0.1848     0.0507 </r>
       <r>    -4.1907     0.2225     0.0726 </r>
       <r>    -4.0923     0.2085     0.0931 </r>
       <r>    -3.9938     0.1672     0.1095 </r>
       <r>    -3.8954     0.1337     0.1227 </r>
       <r>    -3.7969     0.1318     0.1357 </r>
       <r>    -3.6985     0.1803     0.1534 </r>
       <r>    -3.6000     0.2796     0.1809 </r>
       <r>    -3.5016     0.3744     0.2178 </r>
       <r>    -3.4032     0.3739     0.2546 </r>
       <r>    -3.3047     0.2882     0.2830 </r>
       <r>    -3.2063     0.2443     0.3070 </r>
       <r>    -3.1078     0.2850     0.3351 </r>
       <r>    -3.0094     0.3175     0.3663 </r>
       <r>    -2.9110     0.2920     0.3951 </r>
       <r>    -2.8125     0.2655     0.4212 </r>
       <r>    -2.7141     0.2821     0.4490 </r>
       <r>    -2.6156     0.3209     0.4806 </r>
       <r>    -2.5172     0.3597     0.5160 </r>
       <r>    -2.4187     0.3968     0.5550 </r>
       <r>    -2.3203     0.4067     0.5951 </r>
       <r>    -2.2219     0.3676     0.6313 </r>
       <r>    -2.1234     0.3545     0.6662 </r>
       <r>    -2.0250     0.4508     0.7105 </r>
       <r>    -1.9265     0.5565     0.7653 </r>
       <r>    -1.8281     0.5089     0.8154 </r>
       <r>    -1.7297     0.3384     0.8487 </r>
       <r>    -1.6312     0.1913     0.8676 </r>
       <r>    -1.5328     0.1508     0.8824 </r>
       <r>    -1.4343     0.2453     0.9066 </r>
       <r>    -1.3359     0.4685     0.9527 </r>
       <r>    -1.2375     0.7237     1.0239 </r>
       <r>    -1.1390     0.8229     1.1049 </r>
       <r>    -1.0406     0.6886     1.1727 </r>
       <r>    -0.9421     0.4947     1.2214 </r>
       <r>    -0.8437     0.4247     1.2632 </r>
       <r>    -0.7452     0.4519     1.3077 </r>
       <r>    -0.6468     0.4659     1.3536 </r>
       <r>    -0.5484     0.4301     1.3959 </r>
       <r>    -0.4499     0.3770     1.4331 </r>
       <r>    -0.3515     0.3538     1.4679 </r>
       <r>    -0.2530     0.3830     1.5056 </r>
       <r>    -0.1546     0.4343     1.5483 </r>
       <r>    -0.0562     0.4507     1.5927 </r>
       <r>     0.0423     0.4524     1.6372 </r>
       <r>     0.1407     0.5564     1.6920 </r>
       <r>     0.2392     0.7789     1.7687 </r>
       <r>     0.3376     0.9194     1.8592 </r>
       <r>     0.4361     0.8311     1.9410 </r>
       <r>     0.5345     0.6376     2.0038 </r>
       <r>     0.6329     0.5141     2.0544 </r>
       <r>     0.7314     0.5019     2.1038 </r>
       <r>     0.8298     0.6127     2.1641 </r>
       <r>     0.9283     0.8246     2.2453 </r>
       <r>     1.0267     0.9555     2.3394 </r>
       <r>     1.1251     0.8620     2.4242 </r>
       <r>     1.2236     0.6802     2.4912 </r>
       <r>     1.3220     0.5811     2.5484 </r>
       <r>     1.4205     0.5146     2.5990 </r>
       <r>     1.5189     0.4071     2.6391 </r>
       <r>     1.6173     0.3257     2.6712 </r>
       <r>     1.7158     0.3191     2.7026 </r>
       <r>     1.8142     0.3349     2.7356 </r>
       <r>     1.9127     0.3277     2.7678 </r>
       <r>     2.0111     0.3226     2.7996 </r>
       <r>     2.1096     0.3566     2.8347 </r>
       <r>     2.2080     0.4297     2.8770 </r>
       <r>     2.3064     0.5701     2.9331 </r>
       <r>     2.4049     0.8137     3.0132 </r>
       <r>     2.5033     1.0480     3.1164 </r>
       <r>     2.6018     1.0994     3.2246 </r>
       <r>     2.7002     0.9830     3.3213 </r>
       <r>     2.7986     0.8207     3.4021 </r>
       <r>     2.8971     0.6398     3.4651 </r>
       <r>     2.9955     0.4474     3.5092 </r>
       <r>     3.0940     0.3121     3.5399 </r>
       <r>     3.1924     0.2729     3.5667 </r>
       <r>     3.2909     0.3185     3.5981 </r>
       <r>     3.3893     0.4480     3.6422 </r>
       <r>     3.4877     0.6228     3.7035 </r>
       <r>     3.5862     0.7199     3.7744 </r>
       <r>     3.6846     0.6591     3.8393 </r>
       <r>     3.7831     0.5102     3.8895 </r>
       <r>     3.8815     0.4173     3.9306 </r>
       <r>     3.9799     0.4915     3.9790 </r>
       <r>     4.0784     0.7465     4.0524 </r>
       <r>     4.1768     1.0673     4.1575 </r>
       <r>     4.2753     1.2722     4.2828 </r>
       <r>     4.3737     1.2580     4.4066 </r>
       <r>     4.4721     1.1078     4.5156 </r>
       <r>     4.5706     0.9590     4.6101 </r>
       <r>     4.6690     0.8083     4.6896 </r>
       <r>     4.7675     0.6320     4.7518 </r>
       <r>     4.8659     0.5032     4.8014 </r>
       <r>     4.9644     0.4352     4.8442 </r>
       <r>     5.0628     0.3745     4.8811 </r>
       <r>     5.1612     0.3509     4.9156 </r>
       <r>     5.2597     0.4451     4.9594 </r>
       <r>     5.3581     0.6807     5.0265 </r>
       <r>     5.4566     0.9954     5.1244 </r>
       <r>     5.5550     1.2671     5.2492 </r>
       <r>     5.6534     1.3749     5.3845 </r>
       <r>     5.7519     1.2771     5.5102 </r>
       <r>     5.8503     1.0248     5.6111 </r>
       <r>     5.9488     0.7327     5.6832 </r>
       <r>     6.0472     0.5688     5.7392 </r>
       <r>     6.1457     0.6397     5.8022 </r>
       <r>     6.2441     0.8612     5.8870 </r>
       <r>     6.3425     1.0349     5.9889 </r>
       <r>     6.4410     1.0196     6.0892 </r>
       <r>     6.5394     0.8471     6.1726 </r>
       <r>     6.6379     0.7103     6.2426 </r>
       <r>     6.7363     0.7507     6.3165 </r>
       <r>     6.8347     0.9347     6.4085 </r>
       <r>     6.9332     1.1875     6.5254 </r>
       <r>     7.0316     1.4356     6.6667 </r>
       <r>     7.1301     1.5359     6.8179 </r>
       <r>     7.2285     1.4177     6.9575 </r>
       <r>     7.3270     1.1951     7.0751 </r>
       <r>     7.4254     0.9975     7.1733 </r>
       <r>     7.5238     0.8563     7.2576 </r>
       <r>     7.6223     0.7657     7.3330 </r>
       <r>     7.7207     0.6889     7.4008 </r>
       <r>     7.8192     0.5801     7.4579 </r>
       <r>     7.9176     0.4827     7.5054 </r>
       <r>     8.0160     0.4784     7.5525 </r>
       <r>     8.1145     0.5635     7.6080 </r>
       <r>     8.2129     0.6662     7.6736 </r>
       <r>     8.3114     0.7506     7.7475 </r>
       <r>     8.4098     0.8463     7.8308 </r>
       <r>     8.5082     0.9389     7.9232 </r>
       <r>     8.6067     0.9160     8.0134 </r>
       <r>     8.7051     0.7535     8.0875 </r>
       <r>     8.8036     0.6126     8.1479 </r>
       <r>     8.9020     0.6185     8.2087 </r>
       <r>     9.0005     0.7062     8.2783 </r>
       <r>     9.0989     0.7416     8.3513 </r>
       <r>     9.1973     0.6773     8.4179 </r>
       <r>     9.2958     0.5594     8.4730 </r>
       <r>     9.3942     0.4559     8.5179 </r>
       <r>     9.4927     0.4060     8.5578 </r>
       <r>     9.5911     0.4295     8.6001 </r>
       <r>     9.6895     0.5411     8.6534 </r>
       <r>     9.7880     0.7103     8.7233 </r>
       <r>     9.8864     0.8796     8.8099 </r>
       <r>     9.9849     0.9987     8.9082 </r>
       <r>    10.0833     0.9818     9.0049 </r>
       <r>    10.1818     0.8292     9.0865 </r>
       <r>    10.2802     0.7350     9.1589 </r>
       <r>    10.3786     0.8502     9.2426 </r>
       <r>    10.4771     1.0941     9.3503 </r>
       <r>    10.5755     1.2579     9.4741 </r>
       <r>    10.6740     1.1970     9.5919 </r>
       <r>    10.7724     0.9873     9.6891 </r>
       <r>    10.8708     0.8341     9.7712 </r>
       <r>    10.9693     0.7953     9.8495 </r>
       <r>    11.0677     0.7820     9.9265 </r>
       <r>    11.1662     0.7739    10.0027 </r>
       <r>    11.2646     0.8306    10.0845 </r>
       <r>    11.3630     0.9890    10.1818 </r>
       <r>    11.4615     1.2535    10.3052 </r>
       <r>    11.5599     1.5395    10.4568 </r>
       <r>    11.6584     1.6581    10.6200 </r>
       <r>    11.7568     1.5314    10.7707 </r>
       <r>    11.8553     1.2644    10.8952 </r>
       <r>    11.9537     0.9512    10.9888 </r>
       <r>    12.0521     0.6454    11.0524 </r>
       <r>    12.1506     0.4222    11.0939 </r>
       <r>    12.2490     0.3055    11.1240 </r>
       <r>    12.3475     0.2758    11.1512 </r>
       <r>    12.4459     0.3721    11.1878 </r>
       <r>    12.5443     0.6449    11.2513 </r>
       <r>    12.6428     1.0251    11.3522 </r>
       <r>    12.7412     1.3371    11.4838 </r>
       <r>    12.8397     1.4516    11.6267 </r>
       <r>    12.9381     1.3791    11.7625 </r>
       <r>    13.0366     1.2214    11.8827 </r>
       <r>    13.1350     1.0730    11.9883 </r>
       <r>    13.2334     0.9761    12.0844 </r>
       <r>    13.3319     0.9875    12.1816 </r>
       <r>    13.4303     1.1575    12.2956 </r>
       <r>    13.5288     1.3914    12.4326 </r>
       <r>    13.6272     1.5026    12.5805 </r>
       <r>    13.7256     1.4193    12.7202 </r>
       <r>    13.8241     1.2160    12.8399 </r>
       <r>    13.9225     1.0313    12.9414 </r>
       <r>    14.0210     1.0037    13.0402 </r>
       <r>    14.1194     1.1478    13.1532 </r>
       <r>    14.2178     1.3110    13.2823 </r>
       <r>    14.3163     1.3497    13.4151 </r>
       <r>    14.4147     1.2566    13.5389 </r>
       <r>    14.5132     1.0918    13.6463 </r>
       <r>    14.6116     0.9168    13.7366 </r>
       <r>    14.7101     0.7935    13.8147 </r>
       <r>    14.8085     0.7297    13.8865 </r>
       <r>    14.9069     0.6876    13.9542 </r>
       <r>    15.0054     0.6789    14.0210 </r>
       <r>    15.1038     0.7105    14.0910 </r>
       <r>    15.2023     0.7480    14.1646 </r>
       <r>    15.3007     0.8369    14.2470 </r>
       <r>    15.3991     1.0230    14.3477 </r>
       <r>    15.4976     1.1795    14.4638 </r>
       <r>    15.5960     1.1430    14.5763 </r>
       <r>    15.6945     0.9402    14.6689 </r>
       <r>    15.7929     0.7481    14.7425 </r>
       <r>    15.8914     0.6823    14.8097 </r>
       <r>    15.9898     0.6928    14.8779 </r>
       <r>    16.0882     0.6509    14.9420 </r>
       <r>    16.1867     0.5392    14.9951 </r>
       <r>    16.2851     0.5035    15.0446 </r>
       <r>    16.3836     0.6369    15.1073 </r>
       <r>    16.4820     0.8149    15.1875 </r>
       <r>    16.5804     0.8501    15.2712 </r>
       <r>    16.6789     0.7421    15.3443 </r>
       <r>    16.7773     0.6242    15.4057 </r>
       <r>    16.8758     0.5346    15.4584 </r>
       <r>    16.9742     0.4216    15.4999 </r>
       <r>    17.0727     0.2927    15.5287 </r>
       <r>    17.1711     0.2065    15.5490 </r>
       <r>    17.2695     0.1717    15.5659 </r>
       <r>    17.3680     0.1418    15.5799 </r>
       <r>    17.4664     0.0941    15.5891 </r>
       <r>    17.5649     0.0671    15.5957 </r>
       <r>    17.6633     0.1247    15.6080 </r>
       <r>    17.7617     0.2929    15.6368 </r>
       <r>    17.8602     0.4763    15.6837 </r>
       <r>    17.9586     0.5073    15.7337 </r>
       <r>    18.0571     0.3764    15.7707 </r>
       <r>    18.1555     0.2381    15.7942 </r>
       <r>    18.2539     0.1660    15.8105 </r>
       <r>    18.3524     0.1247    15.8228 </r>
       <r>    18.4508     0.1006    15.8327 </r>
       <r>    18.5493     0.0974    15.8423 </r>
       <r>    18.6477     0.0896    15.8511 </r>
       <r>    18.7462     0.0677    15.8578 </r>
       <r>    18.8446     0.0663    15.8643 </r>
       <r>    18.9430     0.1096    15.8751 </r>
       <r>    19.0415     0.1650    15.8913 </r>
       <r>    19.1399     0.1809    15.9091 </r>
       <r>    19.2384     0.1573    15.9246 </r>
       <r>    19.3368     0.1262    15.9370 </r>
       <r>    19.4352     0.0910    15.9460 </r>
       <r>    19.5337     0.0498    15.9509 </r>
       <r>    19.6321     0.0201    15.9529 </r>
       <r>    19.7306     0.0129    15.9541 </r>
       <r>    19.8290     0.0241    15.9565 </r>
       <r>    19.9275     0.0407    15.9605 </r>
       <r>    20.0259     0.0478    15.9652 </r>
       <r>    20.1243     0.0462    15.9698 </r>
       <r>    20.2228     0.0472    15.9744 </r>
       <r>    20.3212     0.0462    15.9790 </r>
       <r>    20.4197     0.0335    15.9823 </r>
       <r>    20.5181     0.0166    15.9839 </r>
       <r>    20.6165     0.0088    15.9848 </r>
       <r>    20.7150     0.0151    15.9862 </r>
       <r>    20.8134     0.0313    15.9893 </r>
       <r>    20.9119     0.0429    15.9936 </r>
       <r>    21.0103     0.0370    15.9972 </r>
       <r>    21.1087     0.0200    15.9992 </r>
       <r>    21.2072     0.0068    15.9998 </r>
       <r>    21.3056     0.0015    16.0000 </r>
       <r>    21.4041     0.0002    16.0000 </r>
       <r>    21.5025     0.0000    16.0000 </r>
       <r>    21.6010     0.0000    16.0000 </r>
       <r>    21.6994     0.0000    16.0000 </r>
       <r>    21.7978     0.0000    16.0000 </r>
       <r>    21.8963     0.0000    16.0000 </r>
       <r>    21.9947     0.0000    16.0000 </r>
       <r>    22.0932     0.0000    16.0000 </r>
       <r>    22.1916     0.0000    16.0000 </r>
       <r>    22.2900     0.0000    16.0000 </r>
       <r>    22.3885     0.0000    16.0000 </r>
       <r>    22.4869     0.0000    16.0000 </r>
       <r>    22.5854     0.0000    16.0000 </r>
       <r>    22.6838     0.0000    16.0000 </r>
       <r>    22.7823     0.0000    16.0000 </r>
       <r>    22.8807     0.0000    16.0000 </r>
      </set>
     </set>
    </array>
   </total>
  </dos>
 </calculation>
 <structure name="finalpos" >
  <crystal>
   <varray name="basis" >
    <v>      -2.40577800       2.40577800       1.37283300 </v>
    <v>       2.40577800      -2.40577800       1.37283300 </v>
    <v>       2.40577800       2.40577800      -1.37283300 </v>
   </varray>
   <i name="volume">     31.78255445 </i>
   <varray name="rec_basis" >
    <v>      -0.00000000       0.20783298       0.36421036 </v>
    <v>       0.20783298      -0.00000000       0.36421036 </v>
    <v>       0.20783298       0.20783298      -0.00000000 </v>
   </varray>
  </crystal>
  <varray name="positions" >
   <v>       0.00000000       0.00000000       0.00000000 </v>
   <v>       0.25000000       0.75000000       0.50000000 </v>
  </varray>
 </structure>
</modeling>
