unknown system                          
   1.00000000000000     
     0.000000    2.715000    2.715000
     2.715000    0.000000    2.715000
     2.715000    2.715000    0.000000
   Si
     2
Direct
  0.500000  0.500000  0.500000
  0.750000  0.750000  0.750000
 
   36   36   36
 0.88217346518E+00 0.89851705177E+00 0.94860636671E+00 0.10354764687E+01 0.11637888357E+01
 0.13393493178E+01 0.15685720815E+01 0.18578536544E+01 0.22126711454E+01 0.26361536315E+01
 0.31270050657E+01 0.36769977897E+01 0.42686939906E+01 0.48743600573E+01 0.54569691564E+01
 0.59736603044E+01 0.63812346219E+01 0.66425852902E+01 0.67326489077E+01 0.66425755192E+01
 0.63812242895E+01 0.59736665137E+01 0.54570087310E+01 0.48744354846E+01 0.42687860161E+01
 0.36770743693E+01 0.31270415367E+01 0.26361470984E+01 0.22126381207E+01 0.18578160416E+01
 0.15685445007E+01 0.13393355260E+01 0.11637856970E+01 0.10354790194E+01 0.94861046395E+00
 0.89851985460E+00 0.89851705177E+00 0.92701907364E+00 0.98577178998E+00 0.10780675879E+01
 0.12083561085E+01 0.13817466476E+01 0.16034342360E+01 0.18780050374E+01 0.22084879264E+01
 0.25950115566E+01 0.30330698693E+01 0.35116836527E+01 0.40120590219E+01 0.45074955941E+01
 0.49651183828E+01 0.53494883756E+01 0.56274995231E+01 0.57735031903E+01 0.57735032691E+01
 0.56275023281E+01 0.53495022419E+01 0.49651537217E+01 0.45075532883E+01 0.40121220104E+01
 0.35117250793E+01 0.30330725267E+01 0.25949791914E+01 0.22084394128E+01 0.18779606543E+01
 0.16034060861E+01 0.13817363359E+01 0.12083572425E+01 0.10780710582E+01 0.98577188218E+00
 0.92701627762E+00 0.89851537958E+00 0.94860636671E+00 0.98577178998E+00 0.10501161336E+01
 0.11449426480E+01 0.12742969945E+01 0.14424597506E+01 0.16533520283E+01 0.19098158034E+01
 0.22126875715E+01 0.25596167762E+01 0.29437240176E+01 0.33524127833E+01 0.37668357692E+01
 0.41625375731E+01 0.45115603596E+01 0.47858508258E+01 0.49613339267E+01 0.50217449239E+01
 0.49613383175E+01 0.47858625412E+01 0.45115829182E+01 0.41625686604E+01 0.37668624104E+01
 0.33524171898E+01 0.29436975391E+01 0.25595673244E+01 0.22126333329E+01 0.19097735541E+01
 0.16533304651E+01 0.14424585477E+01 0.12743079951E+01 0.11449536372E+01 0.10501182416E+01
 0.98576535330E+00 0.94859936084E+00 0.93646406601E+00 0.10354764687E+01 0.10780675879E+01
 0.11449426480E+01 0.12392574733E+01 0.13645427962E+01 0.15241985681E+01 0.17209066940E+01
 0.19559354363E+01 0.22283002402E+01 0.25338010567E+01 0.28640833540E+01 0.32060178417E+01
 0.35417757450E+01 0.38499135469E+01 0.41075471574E+01 0.42933481721E+01 0.43907717416E+01
 0.43907729002E+01 0.42933525969E+01 0.41075552483E+01 0.38499209368E+01 0.35417730849E+01
 0.32059969930E+01 0.28640447856E+01 0.25337547740E+01 0.22282597236E+01 0.19559109892E+01
 0.17209027080E+01 0.15242130192E+01 0.13645669195E+01 0.12392783046E+01 0.11449501772E+01
 0.10780613731E+01 0.10354653148E+01 0.10148027547E+01 0.10148080415E+01 0.11637888357E+01
 0.12083561085E+01 0.12742969945E+01 0.13645427962E+01 0.14820753118E+01 0.16294413862E+01
 0.18082049738E+01 0.20183238834E+01 0.22574507856E+01 0.25202172709E+01 0.27976591281E+01
 0.30770293818E+01 0.33422594447E+01 0.35752331849E+01 0.37578374934E+01 0.38744912586E+01
 0.39146241188E+01 0.38744911665E+01 0.37578368747E+01 0.35752281967E+01 0.33422440623E+01
 0.30770021315E+01 0.27976269746E+01 0.25201911108E+01 0.22574383397E+01 0.20183275581E+01
 0.18082238743E+01 0.16294716977E+01 0.14821087172E+01 0.13645681305E+01 0.12743064340E+01
 0.12083502739E+01 0.11637759681E+01 0.11381297126E+01 0.11297763304E+01 0.11381394124E+01
 0.13393493178E+01 0.13817466476E+01 0.14424597506E+01 0.15241985681E+01 0.16294413862E+01
 0.17599910553E+01 0.19164988103E+01 0.20979531869E+01 0.23011509108E+01 0.25202172225E+01
 0.27463169231E+01 0.29677493601E+01 0.31706056114E+01 0.33400682741E+01 0.34622612374E+01
 0.35263406750E+01 0.35263406343E+01 0.34622600289E+01 0.33400625247E+01 0.31705918038E+01
 0.29677293458E+01 0.27462998856E+01 0.25202134438E+01 0.23011641755E+01 0.20979803564E+01
 0.19165344067E+01 0.17600289632E+01 0.16294736471E+01 0.15242173185E+01 0.14424622168E+01
 0.13817370460E+01 0.13393355151E+01 0.13127319760E+01 0.12999683506E+01 0.12999724577E+01
 0.13127429947E+01 0.15685720815E+01 0.16034342360E+01 0.16533520283E+01 0.17209066940E+01
 0.18082049738E+01 0.19164988103E+01 0.20458078283E+01 0.21945425262E+01 0.23591444513E+01
 0.25338010424E+01 0.27103518069E+01 0.28785414673E+01 0.30267540715E+01 0.31432631456E+01
 0.32178644631E+01 0.32435637990E+01 0.32178664612E+01 0.31432632824E+01 0.30267487503E+01
 0.28785325421E+01 0.27103472386E+01 0.25338091326E+01 0.23591674879E+01 0.21945762603E+01
 0.20458451513E+01 0.19165316014E+01 0.18082247304E+01 0.17209083412E+01 0.16533385548E+01
 0.16034152336E+01 0.15685564768E+01 0.15460946267E+01 0.15336944444E+01 0.15297527210E+01
 0.15336981454E+01 0.15461036838E+01 0.18578536544E+01 0.18780050374E+01 0.19098158034E+01
 0.19559354363E+01 0.20183238834E+01 0.20979531869E+01 0.21945425262E+01 0.23063151489E+01
 0.24297849093E+01 0.25596169205E+01 0.26886613635E+01 0.28082959574E+01 0.29091838153E+01
 0.29824395924E+01 0.30210241978E+01 0.30210275322E+01 0.29824465916E+01 0.29091890758E+01
 0.28082979823E+01 0.26886638510E+01 0.25596246236E+01 0.24297997842E+01 0.23063358591E+01
 0.21945647306E+01 0.20979689064E+01 0.20183237350E+01 0.19559155903E+01 0.19097833501E+01
 0.18779742628E+01 0.18578355006E+01 0.18463737511E+01 0.18406965070E+01 0.18384983017E+01
 0.18384967111E+01 0.18406945207E+01 0.18463784857E+01 0.22126711454E+01 0.22084879264E+01
 0.22126875715E+01 0.22283002402E+01 0.22574507856E+01 0.23011509108E+01 0.23591444513E+01
 0.24297849093E+01 0.25099475494E+01 0.25950117160E+01 0.26789991512E+01 0.27549835307E+01
 0.28158409039E+01 0.28552822253E+01 0.28689536908E+01 0.28552928769E+01 0.28158560813E+01
 0.27549967236E+01 0.26790070540E+01 0.25950133059E+01 0.25099434854E+01 0.24297782503E+01
 0.23591378216E+01 0.23011410142E+01 0.22574293566E+01 0.22282635367E+01 0.22126436254E+01
 0.22084520967E+01 0.22126544817E+01 0.22216092981E+01 0.22315237446E+01 0.22390347038E+01
 0.22418125628E+01 0.22390252321E+01 0.22315121549E+01 0.22216071204E+01 0.26361536315E+01
 0.25950115566E+01 0.25596167762E+01 0.25338010567E+01 0.25202172709E+01 0.25202172225E+01
 0.25338010424E+01 0.25596169205E+01 0.25950117160E+01 0.26361536766E+01 0.26782856836E+01
 0.27161841012E+01 0.27448424016E+01 0.27602820578E+01 0.27602902928E+01 0.27448630232E+01
 0.27162072027E+01 0.26782998270E+01 0.26361495967E+01 0.25949866313E+01 0.25595775958E+01
 0.25337591761E+01 0.25201788598E+01 0.25201793987E+01 0.25337604528E+01 0.25595789727E+01
 0.25949877046E+01 0.26361501693E+01 0.26782997361E+01 0.27162065219E+01 0.27448621761E+01
 0.27602896403E+01 0.27602815702E+01 0.27448419517E+01 0.27161837864E+01 0.26782855918E+01
 0.31270050657E+01 0.30330698693E+01 0.29437240176E+01 0.28640833540E+01 0.27976591281E+01
 0.27463169231E+01 0.27103518069E+01 0.26886613635E+01 0.26789991512E+01 0.26782856836E+01
 0.26829777599E+01 0.26895163400E+01 0.26948376202E+01 0.26968636470E+01 0.26948559496E+01
 0.26895437633E+01 0.26829973550E+01 0.26782790577E+01 0.26789574184E+01 0.26885931292E+01
 0.27102780854E+01 0.27462556565E+01 0.27976155641E+01 0.28640553419E+01 0.29437119730E+01
 0.30330763977E+01 0.31270279516E+01 0.32190572299E+01 0.33017598958E+01 0.33676428233E+01
 0.34101753003E+01 0.34248790821E+01 0.34101598524E+01 0.33676165758E+01 0.33017282917E+01
 0.32190259492E+01 0.36769977897E+01 0.35116836527E+01 0.33524127833E+01 0.32060178417E+01
 0.30770293818E+01 0.29677493601E+01 0.28785414673E+01 0.28082959574E+01 0.27549835307E+01
 0.27161841012E+01 0.26895163400E+01 0.26729565020E+01 0.26650563977E+01 0.26650662281E+01
 0.26729804880E+01 0.26895372174E+01 0.27161772816E+01 0.27549327372E+01 0.28082089106E+01
 0.28784470894E+01 0.29676772670E+01 0.30769928130E+01 0.32060146590E+01 0.33524360766E+01
 0.35117260444E+01 0.36770485508E+01 0.38394637238E+01 0.39884903632E+01 0.41130790368E+01
 0.42029471184E+01 0.42500816421E+01 0.42500780109E+01 0.42029360426E+01 0.41130586506E+01
 0.39884570704E+01 0.38394175862E+01 0.42686939906E+01 0.40120590219E+01 0.37668357692E+01
 0.35417757450E+01 0.33422594447E+01 0.31706056114E+01 0.30267540715E+01 0.29091838153E+01
 0.28158409039E+01 0.27448424016E+01 0.26948376202E+01 0.26650563977E+01 0.26551636517E+01
 0.26650716647E+01 0.26948542968E+01 0.27448346582E+01 0.28157866882E+01 0.29090877506E+01
 0.30266505184E+01 0.31705340261E+01 0.33422380236E+01 0.35417985707E+01 0.37668872522E+01
 0.40121236784E+01 0.42687570085E+01 0.45248132148E+01 0.47657738959E+01 0.49758006782E+01
 0.51394290697E+01 0.52435410486E+01 0.52792911558E+01 0.52435483488E+01 0.51394365334E+01
 0.49757970502E+01 0.47657493979E+01 0.45247656102E+01 0.48743600573E+01 0.45074955941E+01
 0.41625375731E+01 0.38499135469E+01 0.35752331849E+01 0.33400682741E+01 0.31432631456E+01
 0.29824395924E+01 0.28552822253E+01 0.27602820578E+01 0.26968636470E+01 0.26650662281E+01
 0.26650716647E+01 0.26968717448E+01 0.27602698305E+01 0.28552253353E+01 0.29823388348E+01
 0.31431553923E+01 0.33400009488E+01 0.35752270674E+01 0.38499546069E+01 0.41625991270E+01
 0.45075578378E+01 0.48744110845E+01 0.52478736973E+01 0.56085842785E+01 0.59346751033E+01
 0.62039435445E+01 0.63963790917E+01 0.64967394597E+01 0.64967502915E+01 0.63964056872E+01
 0.62039720087E+01 0.59346910531E+01 0.56085779543E+01 0.52478426359E+01 0.54569691564E+01
 0.49651183828E+01 0.45115603596E+01 0.41075471574E+01 0.37578374934E+01 0.34622612374E+01
 0.32178644631E+01 0.30210241978E+01 0.28689536908E+01 0.27602902928E+01 0.26948559496E+01
 0.26729804880E+01 0.26948542968E+01 0.27602698305E+01 0.28688918387E+01 0.30209191236E+01
 0.32177525442E+01 0.34621953398E+01 0.37578412071E+01 0.41075976624E+01 0.45116173929E+01
 0.49651585302E+01 0.54569893993E+01 0.59688513698E+01 0.64762163667E+01 0.69502258828E+01
 0.73604553766E+01 0.76781092296E+01 0.78793302850E+01 0.79482678543E+01 0.78793508065E+01
 0.76781429176E+01 0.73604918585E+01 0.69502553027E+01 0.64762313801E+01 0.59688490654E+01
 0.59736603044E+01 0.53494883756E+01 0.47858508258E+01 0.42933481721E+01 0.38744912586E+01
 0.35263406750E+01 0.32435637990E+01 0.30210275322E+01 0.28552928769E+01 0.27448630232E+01
 0.26895437633E+01 0.26895372174E+01 0.27448346582E+01 0.28552253353E+01 0.30209191236E+01
 0.32434488107E+01 0.35262738039E+01 0.38744993795E+01 0.42934034491E+01 0.47859002711E+01
 0.53495025839E+01 0.59736452091E+01 0.66382661536E+01 0.73142058907E+01 0.79653692757E+01
 0.85520844776E+01 0.90350192211E+01 0.93792902270E+01 0.95585499432E+01 0.95585489777E+01
 0.93792911175E+01 0.90350297448E+01 0.85521082443E+01 0.79654014026E+01 0.73142386807E+01
 0.66382943614E+01 0.63812346219E+01 0.56274995231E+01 0.49613339267E+01 0.43907717416E+01
 0.39146241188E+01 0.35263406343E+01 0.32178664612E+01 0.29824465916E+01 0.28158560813E+01
 0.27162072027E+01 0.26829973550E+01 0.27161772816E+01 0.28157866882E+01 0.29823388348E+01
 0.32177525442E+01 0.35262738039E+01 0.39146335504E+01 0.43908295398E+01 0.49613796186E+01
 0.56274965649E+01 0.63811930610E+01 0.72026108141E+01 0.80596088358E+01 0.89097946566E+01
 0.97042675978E+01 0.10392101037E+02 0.10925121943E+02 0.11263068119E+02 0.11378888527E+02
 0.11263020642E+02 0.10925057310E+02 0.10392056572E+02 0.97042611157E+01 0.89098197073E+01
 0.80596522035E+01 0.72026622937E+01 0.66425852902E+01 0.57735031903E+01 0.50217449239E+01
 0.43907729002E+01 0.38744911665E+01 0.34622600289E+01 0.31432632824E+01 0.29091890758E+01
 0.27549967236E+01 0.26782998270E+01 0.26782790577E+01 0.27549327372E+01 0.29090877506E+01
 0.31431553923E+01 0.34621953398E+01 0.38744993795E+01 0.43908295398E+01 0.50217890315E+01
 0.57734937347E+01 0.66425318390E+01 0.76118214301E+01 0.86489464788E+01 0.97075806182E+01
 0.10731214672E+02 0.11657789386E+02 0.12424617324E+02 0.12974195095E+02 0.13261469190E+02
 0.13261412141E+02 0.12974053593E+02 0.12424460476E+02 0.11657680069E+02 0.10731174159E+02
 0.97075936777E+01 0.86489918237E+01 0.76118835309E+01 0.67326489077E+01 0.57735032691E+01
 0.49613383175E+01 0.42933525969E+01 0.37578368747E+01 0.33400625247E+01 0.30267487503E+01
 0.28082979823E+01 0.26790070540E+01 0.26361495967E+01 0.26789574184E+01 0.28082089106E+01
 0.30266505184E+01 0.33400009488E+01 0.37578412071E+01 0.42934034491E+01 0.49613796186E+01
 0.57734937347E+01 0.67325962658E+01 0.78270449879E+01 0.90274819009E+01 0.10287198073E+02
 0.11545415011E+02 0.12731568774E+02 0.13769515500E+02 0.14582811409E+02 0.15102616161E+02
 0.15281264408E+02 0.15102468416E+02 0.14582578667E+02 0.13769289405E+02 0.12731417471E+02
 0.11545351451E+02 0.10287197391E+02 0.90275192752E+01 0.78271039788E+01 0.66425755192E+01
 0.56275023281E+01 0.47858625412E+01 0.41075552483E+01 0.35752281967E+01 0.31705918038E+01
 0.28785325421E+01 0.26886638510E+01 0.25950133059E+01 0.25949866313E+01 0.26885931292E+01
 0.28784470894E+01 0.31705340261E+01 0.35752270674E+01 0.41075976624E+01 0.47859002711E+01
 0.56274965649E+01 0.66425318390E+01 0.78270449879E+01 0.91580515677E+01 0.10592503924E+02
 0.12069820841E+02 0.13515559274E+02 0.14844183159E+02 0.15958536601E+02 0.16760726315E+02
 0.17180084523E+02 0.17180009034E+02 0.16760524295E+02 0.15958275654E+02 0.14843947335E+02
 0.13515403507E+02 0.12069747672E+02 0.10592487146E+02 0.91580722301E+01 0.78270909757E+01
 0.63812242895E+01 0.53495022419E+01 0.45115829182E+01 0.38499209368E+01 0.33422440623E+01
 0.29677293458E+01 0.27103472386E+01 0.25596246236E+01 0.25099434854E+01 0.25595775958E+01
 0.27102780854E+01 0.29676772670E+01 0.33422380236E+01 0.38499546069E+01 0.45116173929E+01
 0.53495025839E+01 0.63811930610E+01 0.76118214301E+01 0.90274819009E+01 0.10592503924E+02
 0.12251015312E+02 0.13930126638E+02 0.15540659334E+02 0.16965138083E+02 0.18080707695E+02
 0.18791501756E+02 0.19035608602E+02 0.18791403286E+02 0.18080525970E+02 0.16964917010E+02
 0.15540460112E+02 0.13929988419E+02 0.12250937857E+02 0.10592470338E+02 0.90274842222E+01
 0.76118518023E+01 0.59736665137E+01 0.49651537217E+01 0.41625686604E+01 0.35417730849E+01
 0.30770021315E+01 0.27462998856E+01 0.25338091326E+01 0.24297997842E+01 0.24297782503E+01
 0.25337591761E+01 0.27462556565E+01 0.30769928130E+01 0.35417985707E+01 0.41625991270E+01
 0.49651585302E+01 0.59736452091E+01 0.72026108141E+01 0.86489464788E+01 0.10287198073E+02
 0.12069820841E+02 0.13930126638E+02 0.15781906747E+02 0.17497193970E+02 0.18932336317E+02
 0.19966288462E+02 0.20508251888E+02 0.20508236625E+02 0.19966228737E+02 0.18932215547E+02
 0.17497030671E+02 0.15781747521E+02 0.13930004783E+02 0.12069740829E+02 0.10287154017E+02
 0.86489379057E+01 0.72026305483E+01 0.54570087310E+01 0.45075532883E+01 0.37668624104E+01
 0.32059969930E+01 0.27976269746E+01 0.25202134438E+01 0.23591674879E+01 0.23063358591E+01
 0.23591378216E+01 0.25201788598E+01 0.27976155641E+01 0.32060146590E+01 0.37668872522E+01
 0.45075578378E+01 0.54569893993E+01 0.66382661536E+01 0.80596088358E+01 0.97075806182E+01
 0.11545415011E+02 0.13515559274E+02 0.15540659334E+02 0.17497193970E+02 0.19226828651E+02
 0.20586911893E+02 0.21458597704E+02 0.21759220981E+02 0.21458619736E+02 0.20586904662E+02
 0.19226751379E+02 0.17497061677E+02 0.15540520929E+02 0.13515448017E+02 0.11545337835E+02
 0.97075369604E+01 0.80596011820E+01 0.66382855023E+01 0.48744354846E+01 0.40121220104E+01
 0.33524171898E+01 0.28640447856E+01 0.25201911108E+01 0.23011641755E+01 0.21945762603E+01
 0.21945647306E+01 0.23011410142E+01 0.25201793987E+01 0.28640553419E+01 0.33524360766E+01
 0.40121236784E+01 0.48744110845E+01 0.59688513698E+01 0.73142058907E+01 0.89097946566E+01
 0.10731214672E+02 0.12731568774E+02 0.14844183159E+02 0.16965138083E+02 0.18932336317E+02
 0.20586911893E+02 0.21787535896E+02 0.22420643278E+02 0.22420680673E+02 0.21787604094E+02
 0.20586928508E+02 0.18932264985E+02 0.16965012824E+02 0.14844057482E+02 0.12731469125E+02
 0.10731145691E+02 0.89097608298E+01 0.73142114632E+01 0.59688816920E+01 0.42687860161E+01
 0.35117250793E+01 0.29436975391E+01 0.25337547740E+01 0.22574383397E+01 0.20979803564E+01
 0.20458451513E+01 0.20979689064E+01 0.22574293566E+01 0.25337604528E+01 0.29437119730E+01
 0.35117260444E+01 0.42687570085E+01 0.52478736973E+01 0.64762163667E+01 0.79653692757E+01
 0.97042675978E+01 0.11657789386E+02 0.13769515500E+02 0.15958536601E+02 0.18080707695E+02
 0.19966288462E+02 0.21458597704E+02 0.22420643278E+02 0.22753593197E+02 0.22420728513E+02
 0.21458683764E+02 0.19966295832E+02 0.18080630916E+02 0.15958424475E+02 0.13769408716E+02
 0.11657702627E+02 0.97042107014E+01 0.79653564588E+01 0.64762475033E+01 0.52479210234E+01
 0.36770743693E+01 0.30330725267E+01 0.25595673244E+01 0.22282597236E+01 0.20183275581E+01
 0.19165344067E+01 0.19165316014E+01 0.20183237350E+01 0.22282635367E+01 0.25595789727E+01
 0.30330763977E+01 0.36770485508E+01 0.45248132148E+01 0.56085842785E+01 0.69502258828E+01
 0.85520844776E+01 0.10392101037E+02 0.12424617324E+02 0.14582811409E+02 0.16760726315E+02
 0.18791501756E+02 0.20508251888E+02 0.21759220981E+02 0.22420680673E+02 0.22420728513E+02
 0.21759321447E+02 0.20508322427E+02 0.18791499509E+02 0.16760668282E+02 0.14582730277E+02
 0.12424531646E+02 0.10392028860E+02 0.85520527954E+01 0.69502511360E+01 0.56086475307E+01
 0.45248721618E+01 0.31270415367E+01 0.25949791914E+01 0.22126333329E+01 0.19559109892E+01
 0.18082238743E+01 0.17600289632E+01 0.18082247304E+01 0.19559155903E+01 0.22126436254E+01
 0.25949877046E+01 0.31270279516E+01 0.38394637238E+01 0.47657738959E+01 0.59346751033E+01
 0.73604553766E+01 0.90350192211E+01 0.10925121943E+02 0.12974195095E+02 0.15102616161E+02
 0.17180084523E+02 0.19035608602E+02 0.20508236625E+02 0.21458619736E+02 0.21787604094E+02
 0.21458683764E+02 0.20508322427E+02 0.19035672025E+02 0.17180108231E+02 0.15102600294E+02
 0.12974143342E+02 0.10925054238E+02 0.90349760642E+01 0.73604724196E+01 0.59347479658E+01
 0.47658587233E+01 0.38395177872E+01 0.26361470984E+01 0.22084394128E+01 0.19097735541E+01
 0.17209027080E+01 0.16294716977E+01 0.16294736471E+01 0.17209083412E+01 0.19097833501E+01
 0.22084520967E+01 0.26361501693E+01 0.32190572299E+01 0.39884903632E+01 0.49758006782E+01
 0.62039435445E+01 0.76781092296E+01 0.93792902270E+01 0.11263068119E+02 0.13261469190E+02
 0.15281264408E+02 0.17180009034E+02 0.18791403286E+02 0.19966228737E+02 0.20586904662E+02
 0.20586928508E+02 0.19966295832E+02 0.18791499509E+02 0.17180108231E+02 0.15281331594E+02
 0.13261477386E+02 0.11263026632E+02 0.93792475295E+01 0.76781186813E+01 0.62040186483E+01
 0.49759032234E+01 0.39885683419E+01 0.32190878371E+01 0.22126381207E+01 0.18779606543E+01
 0.16533304651E+01 0.15242130192E+01 0.14821087172E+01 0.15242173185E+01 0.16533385548E+01
 0.18779742628E+01 0.22126544817E+01 0.26782997361E+01 0.33017598958E+01 0.41130790368E+01
 0.51394290697E+01 0.63963790917E+01 0.78793302850E+01 0.95585499432E+01 0.11378888527E+02
 0.13261412141E+02 0.15102468416E+02 0.16760524295E+02 0.18080525970E+02 0.18932215547E+02
 0.19226751379E+02 0.18932264985E+02 0.18080630916E+02 0.16760668282E+02 0.15102600294E+02
 0.13261477386E+02 0.11378878790E+02 0.95585134294E+01 0.78793317756E+01 0.63964476592E+01
 0.51395367866E+01 0.41131712543E+01 0.33018024866E+01 0.26782992150E+01 0.18578160416E+01
 0.16034060861E+01 0.14424585477E+01 0.13645669195E+01 0.13645681305E+01 0.14424622168E+01
 0.16034152336E+01 0.18578355006E+01 0.22216092981E+01 0.27162065219E+01 0.33676428233E+01
 0.42029471184E+01 0.52435410486E+01 0.64967394597E+01 0.79482678543E+01 0.95585489777E+01
 0.11263020642E+02 0.12974053593E+02 0.14582578667E+02 0.15958275654E+02 0.16964917010E+02
 0.17497030671E+02 0.17497061677E+02 0.16965012824E+02 0.15958424475E+02 0.14582730277E+02
 0.12974143342E+02 0.11263026632E+02 0.95585134294E+01 0.79482592202E+01 0.64967957253E+01
 0.52436434610E+01 0.42030434104E+01 0.33676918201E+01 0.27162058496E+01 0.22215862527E+01
 0.15685445007E+01 0.13817363359E+01 0.12743079951E+01 0.12392783046E+01 0.12743064340E+01
 0.13817370460E+01 0.15685564768E+01 0.18463737511E+01 0.22315237446E+01 0.27448621761E+01
 0.34101753003E+01 0.42500816421E+01 0.52792911558E+01 0.64967502915E+01 0.78793508065E+01
 0.93792911175E+01 0.10925057310E+02 0.12424460476E+02 0.13769289405E+02 0.14843947335E+02
 0.15540460112E+02 0.15781747521E+02 0.15540520929E+02 0.14844057482E+02 0.13769408716E+02
 0.12424531646E+02 0.10925054238E+02 0.93792475295E+01 0.78793317756E+01 0.64967957253E+01
 0.52793869097E+01 0.42501785359E+01 0.34102292120E+01 0.27448627137E+01 0.22314942346E+01
 0.18463457456E+01 0.13393355260E+01 0.12083572425E+01 0.11449536372E+01 0.11449501772E+01
 0.12083502739E+01 0.13393355151E+01 0.15460946267E+01 0.18406965070E+01 0.22390347038E+01
 0.27602896403E+01 0.34248790821E+01 0.42500780109E+01 0.52435483488E+01 0.63964056872E+01
 0.76781429176E+01 0.90350297448E+01 0.10392056572E+02 0.11657680069E+02 0.12731417471E+02
 0.13515403507E+02 0.13929988419E+02 0.13930004783E+02 0.13515448017E+02 0.12731469125E+02
 0.11657702627E+02 0.10392028860E+02 0.90349760642E+01 0.76781186813E+01 0.63964476592E+01
 0.52436434610E+01 0.42501785359E+01 0.34249400950E+01 0.27602957289E+01 0.22390033305E+01
 0.18406600653E+01 0.15460758393E+01 0.11637856970E+01 0.10780710582E+01 0.10501182416E+01
 0.10780613731E+01 0.11637759681E+01 0.13127319760E+01 0.15336944444E+01 0.18384983017E+01
 0.22418125628E+01 0.27602815702E+01 0.34101598524E+01 0.42029360426E+01 0.51394365334E+01
 0.62039720087E+01 0.73604918585E+01 0.85521082443E+01 0.97042611157E+01 0.10731174159E+02
 0.11545351451E+02 0.12069747672E+02 0.12250937857E+02 0.12069740829E+02 0.11545337835E+02
 0.10731145691E+02 0.97042107014E+01 0.85520527954E+01 0.73604724196E+01 0.62040186483E+01
 0.51395367866E+01 0.42030434104E+01 0.34102292120E+01 0.27602957289E+01 0.22417847408E+01
 0.18384576704E+01 0.15336671593E+01 0.13127272579E+01 0.10354790194E+01 0.98577188218E+00
 0.98576535330E+00 0.10354653148E+01 0.11381297126E+01 0.12999683506E+01 0.15297527210E+01
 0.18384967111E+01 0.22390252321E+01 0.27448419517E+01 0.33676165758E+01 0.41130586506E+01
 0.49757970502E+01 0.59346910531E+01 0.69502553027E+01 0.79654014026E+01 0.89098197073E+01
 0.97075936777E+01 0.10287197391E+02 0.10592487146E+02 0.10592470338E+02 0.10287154017E+02
 0.97075369604E+01 0.89097608298E+01 0.79653564588E+01 0.69502511360E+01 0.59347479658E+01
 0.49759032234E+01 0.41131712543E+01 0.33676918201E+01 0.27448627137E+01 0.22390033305E+01
 0.18384576704E+01 0.15297206290E+01 0.12999564466E+01 0.11381367464E+01 0.94861046395E+00
 0.92701627762E+00 0.94859936084E+00 0.10148027547E+01 0.11297763304E+01 0.12999724577E+01
 0.15336981454E+01 0.18406945207E+01 0.22315121549E+01 0.27161837864E+01 0.33017282917E+01
 0.39884570704E+01 0.47657493979E+01 0.56085779543E+01 0.64762313801E+01 0.73142386807E+01
 0.80596522035E+01 0.86489918237E+01 0.90275192752E+01 0.91580722301E+01 0.90274842222E+01
 0.86489379057E+01 0.80596011820E+01 0.73142114632E+01 0.64762475033E+01 0.56086475307E+01
 0.47658587233E+01 0.39885683419E+01 0.33018024866E+01 0.27162058496E+01 0.22314942346E+01
 0.18406600653E+01 0.15336671593E+01 0.12999564466E+01 0.11297778199E+01 0.10148151758E+01
 0.89851985460E+00 0.89851537958E+00 0.93646406601E+00 0.10148080415E+01 0.11381394124E+01
 0.13127429947E+01 0.15461036838E+01 0.18463784857E+01 0.22216071204E+01 0.26782855918E+01
 0.32190259492E+01 0.38394175862E+01 0.45247656102E+01 0.52478426359E+01 0.59688490654E+01
 0.66382943614E+01 0.72026622937E+01 0.76118835309E+01 0.78271039788E+01 0.78270909757E+01
 0.76118518023E+01 0.72026305483E+01 0.66382855023E+01 0.59688816920E+01 0.52479210234E+01
 0.45248721618E+01 0.38395177872E+01 0.32190878371E+01 0.26782992150E+01 0.22215862527E+01
 0.18463457456E+01 0.15460758393E+01 0.13127272579E+01 0.11381367464E+01 0.10148151758E+01
 0.93647388309E+00 0.89851714042E+00 0.92701907596E+00 0.98577183485E+00 0.10780676653E+01
 0.12083561106E+01 0.13817465818E+01 0.16034342098E+01 0.18780050606E+01 0.22084879251E+01
 0.25950115559E+01 0.30330699541E+01 0.35116837555E+01 0.40120589397E+01 0.45074952071E+01
 0.49651176986E+01 0.53494874271E+01 0.56274984511E+01 0.57735023907E+01 0.57735031961E+01
 0.56275030753E+01 0.53495034355E+01 0.49651547919E+01 0.45075537192E+01 0.40121214675E+01
 0.35117236123E+01 0.30330706895E+01 0.25949777424E+01 0.22084388123E+01 0.18779609189E+01
 0.16034070142E+01 0.13817376483E+01 0.12083585702E+01 0.10780720778E+01 0.98577253158E+00
 0.92701669085E+00 0.89851563325E+00 0.92701907596E+00 0.96356756253E+00 0.10267868534E+01
 0.11198735934E+01 0.12467877674E+01 0.14117776794E+01 0.16187939941E+01 0.18707507681E+01
 0.21685647013E+01 0.25099473958E+01 0.28880667433E+01 0.32903979948E+01 0.36982528349E+01
 0.40874780133E+01 0.44305736388E+01 0.47000461241E+01 0.48723683915E+01 0.49316767067E+01
 0.48723726046E+01 0.47000576057E+01 0.44305968893E+01 0.40875128467E+01 0.36982882471E+01
 0.32904159574E+01 0.28880553142E+01 0.25099099153E+01 0.21685164210E+01 0.18707084869E+01
 0.16187684352E+01 0.14117708622E+01 0.12467933661E+01 0.11198806281E+01 0.10267869794E+01
 0.96356074661E+00 0.92701230007E+00 0.91507167037E+00 0.98577183485E+00 0.10267868534E+01
 0.10910644572E+01 0.11815911523E+01 0.13018071892E+01 0.14551384728E+01 0.16443958470E+01
 0.18710217975E+01 0.21341843855E+01 0.24297848443E+01 0.27495547605E+01 0.30805306686E+01
 0.34052414211E+01 0.37028625828E+01 0.39513643380E+01 0.41303673477E+01 0.42241513455E+01
 0.42241517447E+01 0.41303701191E+01 0.39513721657E+01 0.37028748432E+01 0.34052514084E+01
 0.30805285168E+01 0.27495345525E+01 0.24297495100E+01 0.21341441307E+01 0.18709884609E+01
 0.16443779010E+01 0.14551380280E+01 0.13018187562E+01 0.11816038516E+01 0.10910686010E+01
 0.10267805161E+01 0.98576165294E+00 0.96583092284E+00 0.96583571490E+00 0.10780676653E+01
 0.11198735934E+01 0.11815911523E+01 0.12659964780E+01 0.13760589315E+01 0.15144684967E+01
 0.16830335699E+01 0.18819628861E+01 0.21090883011E+01 0.23591444740E+01 0.26232826384E+01
 0.28890302606E+01 0.31408847382E+01 0.33616284730E+01 0.35342802802E+01 0.36443929182E+01
 0.36822402707E+01 0.36443908059E+01 0.35342781393E+01 0.33616263515E+01 0.31408788566E+01
 0.28890166074E+01 0.26232612045E+01 0.23591194024E+01 0.21090653305E+01 0.18819476874E+01
 0.16830307769E+01 0.15144792205E+01 0.13760782077E+01 0.12660146703E+01 0.11815997569E+01
 0.11198706302E+01 0.10780583177E+01 0.10539356429E+01 0.10460636657E+01 0.10539432049E+01
 0.12083561106E+01 0.12467877674E+01 0.13018071892E+01 0.13760589315E+01 0.14721350575E+01
 0.15921016002E+01 0.17369290755E+01 0.19058712306E+01 0.20958765998E+01 0.23011509130E+01
 0.25130075900E+01 0.27201359534E+01 0.29093731752E+01 0.30669837195E+01 0.31803285926E+01
 0.32396599522E+01 0.32396587674E+01 0.31803254606E+01 0.30669783747E+01 0.29093635594E+01
 0.27201213762E+01 0.25129917946E+01 0.23011398395E+01 0.20958738224E+01 0.19058772697E+01
 0.17369435947E+01 0.15921231271E+01 0.14721587032E+01 0.13760773190E+01 0.13018151626E+01
 0.12467856780E+01 0.12083486804E+01 0.11841798062E+01 0.11725556537E+01 0.11725585060E+01
 0.11841869544E+01 0.13817465818E+01 0.14117776794E+01 0.14551384728E+01 0.15144684967E+01
 0.15921016002E+01 0.16896165942E+01 0.18073500289E+01 0.19439254849E+01 0.20958765936E+01
 0.22574507488E+01 0.24206806096E+01 0.25757976179E+01 0.27120288433E+01 0.28187555754E+01
 0.28869090539E+01 0.29103519460E+01 0.28869096943E+01 0.28187545618E+01 0.27120234279E+01
 0.25757880746E+01 0.24206719470E+01 0.22574496530E+01 0.20958863776E+01 0.19439447183E+01
 0.18073748496E+01 0.16896421247E+01 0.15921219173E+01 0.15144785917E+01 0.14551378598E+01
 0.14117708049E+01 0.13817389542E+01 0.13624863488E+01 0.13518832595E+01 0.13485151740E+01
 0.13518858679E+01 0.13624917440E+01 0.16034342098E+01 0.16187939941E+01 0.16443958470E+01
 0.16830335699E+01 0.17369290755E+01 0.18073500289E+01 0.18942516807E+01 0.19959807665E+01
 0.21090882933E+01 0.22283002624E+01 0.23467007473E+01 0.24561837886E+01 0.25482087085E+01
 0.26148274723E+01 0.26498430544E+01 0.26498453668E+01 0.26148317727E+01 0.25482100254E+01
 0.24561804124E+01 0.23466962961E+01 0.22283006255E+01 0.21090972289E+01 0.19959981129E+01
 0.18942737090E+01 0.18073700909E+01 0.17369395140E+01 0.16830301591E+01 0.16443816884E+01
 0.16187777949E+01 0.16034235915E+01 0.15953380240E+01 0.15917610159E+01 0.15905564990E+01
 0.15905558381E+01 0.15917605172E+01 0.15953414679E+01 0.18780050606E+01 0.18707507681E+01
 0.18710217975E+01 0.18819628861E+01 0.19058712306E+01 0.19439254849E+01 0.19959807665E+01
 0.20604353277E+01 0.21341843978E+01 0.22126876673E+01 0.22901978860E+01 0.23602112981E+01
 0.24161719186E+01 0.24523764858E+01 0.24649127682E+01 0.24523828398E+01 0.24161791542E+01
 0.23602141477E+01 0.22901955128E+01 0.22126829250E+01 0.21341812278E+01 0.20604370497E+01
 0.19959877749E+01 0.19439328050E+01 0.19058703092E+01 0.18819484965E+01 0.18709975883E+01
 0.18707270734E+01 0.18779911229E+01 0.18891389736E+01 0.19004655207E+01 0.19087442590E+01
 0.19117642189E+01 0.19087390530E+01 0.19004602272E+01 0.18891409422E+01 0.22084879251E+01
 0.21685647013E+01 0.21341843855E+01 0.21090883011E+01 0.20958765998E+01 0.20958765936E+01
 0.21090882933E+01 0.21341843978E+01 0.21685647468E+01 0.22084879911E+01 0.22493320051E+01
 0.22860434145E+01 0.23137903043E+01 0.23287341442E+01 0.23287387639E+01 0.23138007186E+01
 0.22860519904E+01 0.22493319298E+01 0.22084765875E+01 0.21685447579E+01 0.21341633201E+01
 0.21090735000E+01 0.20958685141E+01 0.20958679691E+01 0.21090721291E+01 0.21341617765E+01
 0.21685437451E+01 0.22084765223E+01 0.22493327928E+01 0.22860534199E+01 0.23138022425E+01
 0.23287400131E+01 0.23287349530E+01 0.23137906961E+01 0.22860435203E+01 0.22493319720E+01
 0.25950115559E+01 0.25099473958E+01 0.24297848443E+01 0.23591444740E+01 0.23011509130E+01
 0.22574507488E+01 0.22283002624E+01 0.22126876673E+01 0.22084879911E+01 0.22126711437E+01