unknown system                          
   1.00000000000000     
     0.000000    2.763075    2.763075
     2.763075    0.000000    2.763075
     2.763075    2.763075    0.000000
   Si
     2
Direct
  0.500000  0.500000  0.500000
  0.750000  0.750000  0.750000
 
   36   36   36
 0.82570     0.84119     0.88875     0.97149      1.0942      1.2627      1.4835      1.7630      2.1070      2.5187    
  2.9973      3.5354      4.1163      4.7130      5.2889      5.8012      6.2064      6.4668      6.5566      6.4667    
  6.2064      5.8012      5.2889      4.7130      4.1164      3.5355      2.9974      2.5187      2.1069      1.7630    
  1.4835      1.2627      1.0942     0.97149     0.88875     0.84119     0.84119     0.86820     0.92399      1.0118    
  1.1363      1.3024      1.5155      1.7803      2.1002      2.4755      2.9021      3.3696      3.8596      4.3461    
  4.7965      5.1758      5.4507      5.5952      5.5952      5.4507      5.1758      4.7966      4.3461      3.8597    
  3.3696      2.9021      2.4755      2.1001      1.7803      1.5154      1.3024      1.1363      1.0118     0.92399    
 0.86820     0.84119     0.88875     0.92399     0.98507      1.0752      1.1985      1.3593      1.5617      1.8088    
  2.1017      2.4384      2.8124      3.2112      3.6164      4.0040      4.3465      4.6161      4.7888      4.8482    
  4.7888      4.6161      4.3465      4.0040      3.6164      3.2112      2.8123      2.4384      2.1016      1.8087    
  1.5617      1.3593      1.1986      1.0753     0.98507     0.92398     0.88874     0.87724     0.97149      1.0118    
  1.0752      1.1647      1.2839      1.4363      1.6248      1.8512      2.1147      2.4115      2.7332      3.0669    
  3.3950      3.6965      3.9488      4.1310      4.2265      4.2265      4.1310      3.9488      3.6965      3.3950    
  3.0669      2.7331      2.4114      2.1147      1.8512      1.6248      1.4363      1.2839      1.1648      1.0752    
  1.0118     0.97147     0.95189     0.95190      1.0942      1.1363      1.1985      1.2839      1.3954      1.5359    
  1.7073      1.9098      2.1416      2.3973      2.6680      2.9410      3.2004      3.4284      3.6072      3.7215    
  3.7608      3.7215      3.6072      3.4284      3.2004      2.9410      2.6679      2.3972      2.1416      1.9099    
  1.7073      1.5359      1.3955      1.2839      1.1985      1.1362      1.0941      1.0699      1.0620      1.0699    
  1.2627      1.3024      1.3593      1.4363      1.5359      1.6603      1.8106      1.9859      2.1834      2.3973    
  2.6185      2.8356      3.0345      3.2007      3.3206      3.3834      3.3834      3.3206      3.2007      3.0345    
  2.8355      2.6185      2.3973      2.1835      1.9860      1.8106      1.6604      1.5359      1.4363      1.3593    
  1.3024      1.2627      1.2378      1.2258      1.2258      1.2378      1.4835      1.5155      1.5617      1.6248    
  1.7073      1.8106      1.9351      2.0794      2.2401      2.4115      2.5851      2.7507      2.8968      3.0116    
  3.0852      3.1105      3.0852      3.0116      2.8968      2.7507      2.5851      2.4115      2.2402      2.0794    
  1.9351      1.8106      1.7073      1.6248      1.5617      1.5155      1.4835      1.4630      1.4518      1.4482    
  1.4518      1.4630      1.7630      1.7803      1.8088      1.8512      1.9098      1.9859      2.0794      2.1886    
  2.3101      2.4384      2.5664      2.6852      2.7856      2.8584      2.8968      2.8968      2.8584      2.7856    
  2.6852      2.5664      2.4384      2.3101      2.1886      2.0794      1.9859      1.9098      1.8512      1.8087    
  1.7803      1.7630      1.7538      1.7496      1.7482      1.7482      1.7496      1.7538      2.1070      2.1002    
  2.1017      2.1147      2.1416      2.1834      2.2401      2.3101      2.3901      2.4755      2.5601      2.6369    
  2.6985      2.7385      2.7523      2.7385      2.6985      2.6369      2.5601      2.4755      2.3901      2.3101    
  2.2401      2.1834      2.1416      2.1147      2.1017      2.1001      2.1069      2.1182      2.1300      2.1387    
  2.1418      2.1386      2.1300      2.1182      2.5187      2.4755      2.4384      2.4115      2.3973      2.3973    
  2.4115      2.4384      2.4755      2.5187      2.5630      2.6030      2.6333      2.6497      2.6497      2.6334    
  2.6030      2.5630      2.5187      2.4755      2.4384      2.4114      2.3972      2.3972      2.4114      2.4384    
  2.4755      2.5187      2.5630      2.6030      2.6334      2.6497      2.6497      2.6333      2.6030      2.5630    
  2.9973      2.9021      2.8124      2.7332      2.6680      2.6185      2.5851      2.5664      2.5601      2.5630    
  2.5712      2.5808      2.5882      2.5910      2.5883      2.5808      2.5712      2.5630      2.5601      2.5663    
  2.5850      2.6185      2.6679      2.7331      2.8124      2.9021      2.9974      3.0914      3.1765      3.2447    
  3.2889      3.3043      3.2889      3.2447      3.1765      3.0914      3.5354      3.3696      3.2112      3.0669    
  2.9410      2.8356      2.7507      2.6852      2.6369      2.6030      2.5808      2.5677      2.5618      2.5618    
  2.5678      2.5808      2.6030      2.6368      2.6851      2.7506      2.8355      2.9410      3.0669      3.2112    
  3.3696      3.5355      3.6998      3.8518      3.9798      4.0727      4.1216      4.1215      4.0726      3.9798    
  3.8518      3.6998      4.1163      3.8596      3.6164      3.3950      3.2004      3.0345      2.8968      2.7856    
  2.6985      2.6333      2.5882      2.5618      2.5530      2.5618      2.5882      2.6333      2.6984      2.7854    
  2.8967      3.0344      3.2004      3.3951      3.6164      3.8597      4.1164      4.3747      4.6198      4.8351    
  5.0039      5.1119      5.1490      5.1119      5.0039      4.8351      4.6198      4.3746      4.7130      4.3461    
  4.0040      3.6965      3.4284      3.2007      3.0116      2.8584      2.7385      2.6497      2.5910      2.5618    
  2.5618      2.5910      2.6497      2.7384      2.8583      3.0115      3.2006      3.4284      3.6966      4.0041    
  4.3461      4.7130      5.0898      5.4567      5.7912      6.0693      6.2691      6.3737      6.3737      6.2692    
  6.0693      5.7912      5.4567      5.0897      5.2889      4.7965      4.3465      3.9488      3.6072      3.3206    
  3.0852      2.8968      2.7523      2.6497      2.5883      2.5678      2.5882      2.6497      2.7523      2.8967    
  3.0850      3.3205      3.6073      3.9489      4.3465      4.7966      5.2889      5.8058      6.3227      6.8095    
  7.2340      7.5645      7.7748      7.8470      7.7748      7.5646      7.2340      6.8096      6.3227      5.8058    
  5.8012      5.1758      4.6161      4.1310      3.7215      3.3834      3.1105      2.8968      2.7385      2.6334    
  2.5808      2.5808      2.6333      2.7384      2.8967      3.1104      3.3834      3.7215      4.1310      4.6161    
  5.1758      5.8012      6.4732      7.1628      7.8327      8.4407      8.9441      9.3046      9.4927      9.4927    
  9.3046      8.9441      8.4407      7.8327      7.1628      6.4732      6.2064      5.4507      4.7888      4.2265    
  3.7608      3.3834      3.0852      2.8584      2.6985      2.6030      2.5712      2.6030      2.6984      2.8583    
  3.0850      3.3834      3.7609      4.2266      4.7888      5.4507      6.2064      7.0377      7.9129      8.7885    
  9.6127      10.330      10.889      11.244      11.366      11.244      10.889      10.330      9.6127      8.7886    
  7.9130      7.0377      6.4668      5.5952      4.8482      4.2265      3.7215      3.3206      3.0116      2.7856    
  2.6369      2.5630      2.5630      2.6368      2.7854      3.0115      3.3205      3.7215      4.2266      4.8483    
  5.5952      6.4667      7.4480      8.5077      9.5986      10.661      11.628      12.431      13.008      13.310    
  13.310      13.008      12.431      11.628      10.661      9.5986      8.5078      7.4481      6.5566      5.5952    
  4.7888      4.1310      3.6072      3.2007      2.8968      2.6852      2.5601      2.5187      2.5601      2.6851    
  2.8967      3.2006      3.6073      4.1310      4.7888      5.5952      6.5565      7.6642      8.8906      10.188    
  11.494      12.731      13.817      14.670      15.216      15.404      15.216      14.670      13.817      12.731    
  11.494      10.188      8.8906      7.6642      6.4667      5.4507      4.6161      3.9488      3.4284      3.0345    
  2.7507      2.5664      2.4755      2.4755      2.5663      2.7506      3.0344      3.4284      3.9489      4.6161    
  5.4507      6.4667      7.6642      9.0227      10.499      12.031      13.537      14.926      16.095      16.942    
  17.385      17.385      16.941      16.095      14.926      13.537      12.031      10.499      9.0228      7.6642    
  6.2064      5.1758      4.3465      3.6965      3.2004      2.8355      2.5851      2.4384      2.3901      2.4384    
  2.5850      2.8355      3.2004      3.6966      4.3465      5.1758      6.2064      7.4480      8.8906      10.499    
  12.217      13.964      15.645      17.142      18.321      19.074      19.332      19.073      18.321      17.142    
  15.645      13.964      12.217      10.499      8.8906      7.4480      5.8012      4.7966      4.0040      3.3950    
  2.9410      2.6185      2.4115      2.3101      2.3101      2.4114      2.6185      2.9410      3.3951      4.0041    
  4.7966      5.8012      7.0377      8.5077      10.188      12.031      13.964      15.895      17.697      19.212    
  20.307      20.881      20.881      20.307      19.212      17.697      15.895      13.964      12.031      10.188    
  8.5077      7.0377      5.2889      4.3461      3.6164      3.0669      2.6679      2.3973      2.2402      2.1886    
  2.2401      2.3972      2.6679      3.0669      3.6164      4.3461      5.2889      6.4732      7.9129      9.5986    
  11.494      13.537      15.645      17.697      19.521      20.959      21.882      22.200      21.882      20.959    
  19.521      17.697      15.645      13.537      11.494      9.5985      7.9129      6.4732      4.7130      3.8597    
  3.2112      2.7331      2.3972      2.1835      2.0794      2.0794      2.1834      2.3972      2.7331      3.2112    
  3.8597      4.7130      5.8058      7.1628      8.7885      10.661      12.731      14.926      17.142      19.212    
  20.959      22.228      22.897      22.897      22.228      20.959      19.212      17.142      14.926      12.731    
  10.661      8.7885      7.1628      5.8058      4.1164      3.3696      2.8123      2.4114      2.1416      1.9860    
  1.9351      1.9859      2.1416      2.4114      2.8124      3.3696      4.1164      5.0898      6.3227      7.8327    
  9.6127      11.628      13.817      16.095      18.321      20.307      21.882      22.897      23.248      22.897    
  21.882      20.307      18.321      16.095      13.817      11.628      9.6127      7.8326      6.3227      5.0898    
  3.5355      2.9021      2.4384      2.1147      1.9099      1.8106      1.8106      1.9098      2.1147      2.4384    
  2.9021      3.5355      4.3747      5.4567      6.8095      8.4407      10.330      12.431      14.670      16.942    
  19.074      20.881      22.200      22.897      22.897      22.200      20.881      19.074      16.942      14.670    
  12.431      10.330      8.4406      6.8096      5.4568      4.3747      2.9974      2.4755      2.1016      1.8512    
  1.7073      1.6604      1.7073      1.8512      2.1017      2.4755      2.9974      3.6998      4.6198      5.7912    
  7.2340      8.9441      10.889      13.008      15.216      17.385      19.332      20.881      21.882      22.228    
  21.882      20.881      19.332      17.385      15.216      13.008      10.889      8.9440      7.2340      5.7913    
  4.6199      3.6999      2.5187      2.1001      1.8087      1.6248      1.5359      1.5359      1.6248      1.8087    
  2.1001      2.5187      3.0914      3.8518      4.8351      6.0693      7.5645      9.3046      11.244      13.310    
  15.404      17.385      19.073      20.307      20.959      20.959      20.307      19.074      17.385      15.404    
  13.310      11.244      9.3045      7.5645      6.0694      4.8352      3.8519      3.0914      2.1069      1.7803    
  1.5617      1.4363      1.3955      1.4363      1.5617      1.7803      2.1069      2.5630      3.1765      3.9798    
  5.0039      6.2691      7.7748      9.4927      11.366      13.310      15.216      16.941      18.321      19.212    
  19.521      19.212      18.321      16.942      15.216      13.310      11.366      9.4927      7.7748      6.2692    
  5.0040      3.9799      3.1765      2.5630      1.7630      1.5154      1.3593      1.2839      1.2839      1.3593    
  1.5155      1.7630      2.1182      2.6030      3.2447      4.0727      5.1119      6.3737      7.8470      9.4927    
  11.244      13.008      14.670      16.095      17.142      17.697      17.697      17.142      16.095      14.670    
  13.008      11.244      9.4927      7.8470      6.3738      5.1120      4.0728      3.2448      2.6030      2.1182    
  1.4835      1.3024      1.1986      1.1648      1.1985      1.3024      1.4835      1.7538      2.1300      2.6334    
  3.2889      4.1216      5.1490      6.3737      7.7748      9.3046      10.889      12.431      13.817      14.926    
  15.645      15.895      15.645      14.926      13.817      12.431      10.889      9.3045      7.7748      6.3738    
  5.1492      4.1217      3.2890      2.6334      2.1299      1.7538      1.2627      1.1363      1.0753      1.0752    
  1.1362      1.2627      1.4630      1.7496      2.1387      2.6497      3.3043      4.1215      5.1119      6.2692    
  7.5646      8.9441      10.330      11.628      12.731      13.537      13.964      13.964      13.537      12.731    
  11.628      10.330      8.9440      7.5645      6.2692      5.1120      4.1217      3.3044      2.6497      2.1386    
  1.7496      1.4630      1.0942      1.0118     0.98507      1.0118      1.0941      1.2378      1.4518      1.7482    
  2.1418      2.6497      3.2889      4.0726      5.0039      6.0693      7.2340      8.4407      9.6127      10.661    
  11.494      12.031      12.217      12.031      11.494      10.661      9.6127      8.4406      7.2340      6.0694    
  5.0040      4.0728      3.2890      2.6497      2.1418      1.7481      1.4517      1.2378     0.97149     0.92399    
 0.92398     0.97147      1.0699      1.2258      1.4482      1.7482      2.1386      2.6333      3.2447      3.9798    
  4.8351      5.7912      6.8096      7.8327      8.7886      9.5986      10.188      10.499      10.499      10.188    
  9.5985      8.7885      7.8326      6.8096      5.7913      4.8352      3.9799      3.2448      2.6334      2.1386    
  1.7481      1.4482      1.2258      1.0699     0.88875     0.86820     0.88874     0.95189      1.0620      1.2258    
  1.4518      1.7496      2.1300      2.6030      3.1765      3.8518      4.6198      5.4567      6.3227      7.1628    
  7.9130      8.5078      8.8906      9.0228      8.8906      8.5077      7.9129      7.1628      6.3227      5.4568    
  4.6199      3.8519      3.1765      2.6030      2.1299      1.7496      1.4517      1.2258      1.0620     0.95191    
 0.84119     0.84119     0.87724     0.95190      1.0699      1.2378      1.4630      1.7538      2.1182      2.5630    
  3.0914      3.6998      4.3746      5.0897      5.8058      6.4732      7.0377      7.4481      7.6642      7.6642    
  7.4480      7.0377      6.4732      5.8058      5.0898      4.3747      3.6999      3.0914      2.5630      2.1182    
  1.7538      1.4630      1.2378      1.0699     0.95191     0.87725     0.84119     0.86820     0.92399      1.0118    
  1.1363      1.3024      1.5155      1.7803      2.1002      2.4755      2.9021      3.3696      3.8596      4.3461    
  4.7965      5.1758      5.4507      5.5952      5.5952      5.4507      5.1758      4.7966      4.3461      3.8597    
  3.3696      2.9021      2.4755      2.1001      1.7803      1.5155      1.3024      1.1363      1.0119     0.92399    
 0.86820     0.84119     0.86820     0.90292     0.96302      1.0516      1.1726      1.3303      1.5289      1.7714    
  2.0591      2.3901      2.7578      3.1501      3.5486      3.9297      4.2664      4.5312      4.7009      4.7593    
  4.7009      4.5312      4.2664      3.9298      3.5487      3.1501      2.7578      2.3901      2.0591      1.7713    
  1.5288      1.3303      1.1726      1.0516     0.96302     0.90291     0.86820     0.85686     0.92399     0.96302    
  1.0241      1.1102      1.2246      1.3708      1.5519      1.7697      2.0237      2.3101      2.6208      2.9432    
  3.2601      3.5510      3.7942      3.9697      4.0617      4.0617      3.9697      3.7942      3.5510      3.2601    
  2.9432      2.6208      2.3101      2.0236      1.7696      1.5519      1.3708      1.2246      1.1102      1.0241    
 0.96301     0.92397     0.90499     0.90500      1.0118      1.0516      1.1102      1.1902      1.2946      1.4263    
  1.5874      1.7785      1.9978      2.2401      2.4969      2.7558      3.0015      3.2171      3.3859      3.4936    
  3.5306      3.4936      3.3858      3.2171      3.0015      2.7558      2.4969      2.2401      1.9978      1.7785    
  1.5874      1.4263      1.2946      1.1902      1.1102      1.0516      1.0118     0.98883     0.98131     0.98884    
  1.1363      1.1726      1.2246      1.2946      1.3855      1.4995      1.6379      1.8004      1.9841      2.1834    
  2.3897      2.5918      2.7766      2.9306      3.0414      3.0994      3.0994      3.0414      2.9306      2.7765    
  2.5918      2.3897      2.1834      1.9841      1.8004      1.6379      1.4995      1.3855      1.2946      1.2246    
  1.1726      1.1362      1.1133      1.1022      1.1022      1.1133      1.3024      1.3303      1.3708      1.4263    
  1.4995      1.5921      1.7049      1.8366      1.9841      2.1416      2.3011      2.4529      2.5862      2.6907    
  2.7575      2.7804      2.7575      2.6907      2.5862      2.4528      2.3011      2.1416      1.9841      1.8367    
  1.7049      1.5921      1.4995      1.4263      1.3708      1.3303      1.3024      1.2844      1.2744      1.2713    
  1.2744      1.2844      1.5155      1.5289      1.5519      1.5874      1.6379      1.7049      1.7885      1.8873    
  1.9978      2.1147      2.2311      2.3389      2.4295      2.4950      2.5294      2.5294      2.4950      2.4295    
  2.3389      2.2311      2.1147      1.9978      1.8873      1.7885      1.7049      1.6379      1.5874      1.5519    
  1.5289      1.5155      1.5087      1.5059      1.5051      1.5051      1.5059      1.5087      1.7803      1.7714    
  1.7697      1.7785      1.8004      1.8366      1.8873      1.9507      2.0237      2.1017      2.1788      2.2485    
  2.3042      2.3402      2.3527      2.3402      2.3042      2.2485      2.1788      2.1017      2.0237      1.9507    
  1.8873      1.8367      1.8004      1.7785      1.7697      1.7714      1.7803      1.7928      1.8050      1.8137    
  1.8169      1.8137      1.8050      1.7928      2.1002      2.0591      2.0237      1.9978      1.9841      1.9841    
  1.9978      2.0237      2.0591      2.1002      2.1421      2.1797      2.2081      2.2234      2.2234      2.2081    
  2.1797      2.1421      2.1002      2.0591      2.0237      1.9978      1.9841      1.9841      1.9978      2.0237    
  2.0591      2.1002      2.1421      2.1797      2.2081      2.2234      2.2234      2.2081      2.1797      2.1421    
  2.4755      2.3901      2.3101      2.2401      2.1834      2.1416      2.1147      2.1017      2.1002      2.1070    
  2.1182      2.1300      2.1386      2.1418      2.1387      2.1300      2.1182      2.1069      2.1001      2.1017    
  2.1147      2.1416      2.1834      2.2401      2.3101      2.3901      2.4755      2.5601      2.6369      2.6985    
  2.7385      2.7523      2.7385      2.6985      2.6369      2.5601      2.9021      2.7578      2.6208      2.4969    
  2.3897      2.3011      2.2311      2.1788      2.1421      2.1182      2.1041      2.0967      2.0938      2.0938    
  2.0968      2.1041      2.1182      2.1421      2.1788      2.2311      2.3011      2.3897      2.4969      2.6209    
  2.7579      2.9022      3.0459      3.1796      3.2926      3.3749      3.4183      3.4183      3.3749      3.2926    
  3.1796      3.0459      3.3696      3.1501      2.9432      2.7558      2.5918      2.4529      2.3389      2.2485    
  2.1797      2.1300      2.0967      2.0779      2.0718      2.0779      2.0967      2.1299      2.1796      2.2485    
  2.3388      2.4528      2.5918      2.7558      2.9433      3.1501      3.3696      3.5919      3.8043      3.9921    
  4.1402      4.2353      4.2681      4.2353      4.1402      3.9921      3.8043      3.5919      3.8596      3.5486    
  3.2601      3.0015      2.7766      2.5862      2.4295      2.3042      2.2081      2.1386      2.0938      2.0718    
  2.0718      2.0937      2.1386      2.2080      2.3041      2.4294      2.5862      2.7766      3.0015      3.2601    
  3.5487      3.8597      4.1813      4.4972      4.7878      5.0314      5.2077      5.3003      5.3003      5.2077    
  5.0314      4.7878      4.4972      4.1812      4.3461      3.9297      3.5510      3.2171      2.9306      2.6907    
  2.4950      2.3402      2.2234      2.1418      2.0938      2.0779      2.0937      2.1418      2.2233      2.3401    
  2.4949      2.6907      2.9306      3.2171      3.5510      3.9298      4.3461      4.7867      5.2318      5.6558    
  6.0295      6.3234      6.5116      6.5764      6.5116      6.3234      6.0295      5.6558      5.2317      4.7867    
  4.7965      4.2664      3.7942      3.3859      3.0414      2.7575      2.5294      2.3527      2.2234      2.1387    
  2.0968      2.0967      2.1386      2.2233      2.3526      2.5294      2.7575      3.0414      3.3859      3.7943    
  4.2664      4.7966      5.3713      5.9679      6.5552      7.0955      7.5482      7.8753      8.0471      8.0471    
  7.8754      7.5482      7.0955      6.5552      5.9679      5.3712      5.1758      4.5312      3.9697      3.4936    
  3.0994      2.7804      2.5294      2.3402      2.2081      2.1300      2.1041      2.1299      2.2080      2.3401    
  2.5294      2.7804      3.0995      3.4937      3.9697      4.5312      5.1758      5.8915      6.6547      7.4295    
  8.1699      8.8235      9.3377      9.6670      9.7805      9.6670      9.3377      8.8235      8.1699      7.4295    
  6.6547      5.8915      5.4507      4.7009      4.0617      3.5306      3.0994      2.7575      2.4950      2.3042    
  2.1797      2.1182      2.1182      2.1796      2.3041      2.4949      2.7575      3.0995      3.5307      4.0617    
  4.7009      5.4507      6.3031      7.2361      8.2116      9.1769      10.068      10.817      11.360      11.645    
  11.645      11.360      10.817      10.068      9.1769      8.2116      7.2361      6.3031      5.5952      4.7593    
  4.0617      3.4936      3.0414      2.6907      2.4295      2.2485      2.1421      2.1069      2.1421      2.2485    
  2.4294      2.6907      3.0414      3.4937      4.0617      4.7593      5.5952      6.5677      7.6591      8.8327    
  10.033      11.186      12.210      13.020      13.540      13.720      13.540      13.020      12.210      11.186    
  10.033      8.8327      7.6590      6.5677      5.5952      4.7009      3.9697      3.3858      2.9306      2.5862    
  2.3389      2.1788      2.1002      2.1001      2.1788      2.3388      2.5862      2.9306      3.3859      3.9697    
  4.7009      5.5952      6.6590      7.8820      9.2329      10.657      12.077      13.400      14.520      15.338    
  15.770      15.770      15.338      14.520      13.399      12.077      10.657      9.2328      7.8819      6.6589    
  5.4507      4.5312      3.7942      3.2171      2.7765      2.4528      2.2311      2.1017      2.0591      2.1017    
  2.2311      2.4528      2.7766      3.2171      3.7943      4.5312      5.4507      6.5677      7.8820      9.3712    
  10.987      12.653      14.272      15.725      16.886      17.639      17.900      17.639      16.886      15.725    
  14.272      12.653      10.986      9.3711      7.8819      6.5676      5.1758      4.2664      3.5510      3.0015    
  2.5918      2.3011      2.1147      2.0237      2.0237      2.1147      2.3011      2.5918      3.0015      3.5510    
  4.2664      5.1758      6.3031      7.6591      9.2329      10.987      12.852      14.734      16.508      18.030    
  19.153      19.749      19.749      19.153      18.030      16.508      14.734      12.852      10.986      9.2328    
  7.6590      6.3031      4.7966      3.9298      3.2601      2.7558      2.3897      2.1416      1.9978      1.9507    
  1.9978      2.1416      2.3897      2.7558      3.2601      3.9298      4.7966      5.8915      7.2361      8.8327    
  10.657      12.653      14.734      16.780      18.641      20.142      21.119      21.459      21.120      20.142    
  18.641      16.780      14.734      12.653      10.657      8.8327      7.2361      5.8915      4.3461      3.5487    
  2.9432      2.4969      2.1834      1.9841      1.8873      1.8873      1.9841      2.1834      2.4969      2.9433    
  3.5487      4.3461      5.3713      6.6547      8.2116      10.033      12.077      14.272      16.508      18.641    
  20.486      21.849      22.575      22.575      21.850      20.486      18.641      16.508      14.272      12.077    
  10.032      8.2116      6.6547      5.3713      3.8597      3.1501      2.6208      2.2401      1.9841      1.8367    
  1.7885      1.8367      1.9841      2.2401      2.6209      3.1501      3.8597      4.7867      5.9679      7.4295    
  9.1769      11.186      13.400      15.725      18.030      20.142      21.849      22.963      23.350      22.963    
  21.850      20.142      18.031      15.725      13.400      11.186      9.1768      7.4295      5.9679      4.7868    
  3.3696      2.7578      2.3101      1.9978      1.8004      1.7049      1.7049      1.8004      1.9978      2.3101    
  2.7579      3.3696      4.1813      5.2318      6.5552      8.1699      10.068      12.210      14.520      16.886    
  19.153      21.119      22.575      23.350      23.350      22.575      21.120      19.153      16.886      14.520    
  12.210      10.068      8.1699      6.5553      5.2318      4.1813      2.9021      2.3901      2.0236      1.7785    
  1.6379      1.5921      1.6379      1.7785      2.0237      2.3901      2.9022      3.5919      4.4972      5.6558    
  7.0955      8.8235      10.817      13.020      15.338      17.639      19.749      21.459      22.575      22.963    
  22.575      21.459      19.750      17.639      15.338      13.020      10.817      8.8235      7.0956      5.6559    
  4.4973      3.5919      2.4755      2.0591      1.7696      1.5874      1.4995      1.4995      1.5874      1.7697    
  2.0591      2.4755      3.0459      3.8043      4.7878      6.0295      7.5482      9.3377      11.360      13.540    
  15.770      17.900      19.749      21.120      21.850      21.850      21.120      19.750      17.900      15.770    
  13.540      11.360      9.3377      7.5483      6.0296      4.7879      3.8044      3.0459      2.1001      1.7713    
  1.5519      1.4263      1.3855      1.4263      1.5519      1.7714      2.1002      2.5601      3.1796      3.9921    
  5.0314      6.3234      7.8753      9.6670      11.645      13.720      15.770      17.639      19.153      20.142    
  20.486      20.142      19.153      17.639      15.770      13.720      11.645      9.6670      7.8754      6.3235    
  5.0316      3.9922      3.1796      2.5601      1.7803      1.5288      1.3708      1.2946      1.2946      1.3708    
  1.5289      1.7803      2.1421      2.6369      3.2926      4.1402      5.2077      6.5116      8.0471      9.7805    
  11.645      13.540      15.338      16.886      18.030      18.641      18.641      18.031      16.886      15.338    
  13.540      11.645      9.7805      8.0472      6.5117      5.2078      4.1403      3.2927      2.6368      2.1421    
  1.5155      1.3303      1.2246      1.1902      1.2246      1.3303      1.5155      1.7928      2.1797      2.6985    
  3.3749      4.2353      5.3003      6.5764      8.0471      9.6670      11.360      13.020      14.520      15.725    
  16.508      16.780      16.508      15.725      14.520      13.020      11.360      9.6670      8.0472      6.5766    
  5.3005      4.2354      3.3749      2.6984      2.1797      1.7927      1.3024      1.1726      1.1102      1.1102    
  1.1726      1.3024      1.5087      1.8050      2.2081      2.7385      3.4183      4.2681      5.3003      6.5116    
  7.8754      9.3377      10.817      12.210      13.399      14.272      14.734      14.734      14.272      13.400    
  12.210      10.817      9.3377      7.8754      6.5117      5.3005      4.2682      3.4183      2.7384      2.2080    
  1.8049      1.5087      1.1363      1.0516      1.0241      1.0516      1.1362      1.2844      1.5059      1.8137    
  2.2234      2.7523      3.4183      4.2353      5.2077      6.3234      7.5482      8.8235      10.068      11.186    
  12.077      12.653      12.852      12.653      12.077      11.186      10.068      8.8235      7.5483      6.3235    
  5.2078      4.2354      3.4183      2.7523      2.2233      1.8137      1.5059      1.2844      1.0119     0.96302    