unknown system                          
   1.00000000000000     
     0.000000    2.763075    2.763075
     2.763075    0.000000    2.763075
     2.763075    2.763075    0.000000
   Si
     2
Direct
  0.500000  0.500000  0.500000
  0.750000  0.750000  0.750000
 
   36   36   36
 0.82570009178E+00 0.84118962966E+00 0.88874674481E+00 0.97148567273E+00 0.10941649691E+01
 0.12626726650E+01 0.14834791152E+01 0.17630402314E+01 0.21069643689E+01 0.25186651862E+01
 0.29973371729E+01 0.35354371823E+01 0.41163150758E+01 0.47129686176E+01 0.52888538417E+01
 0.58011863058E+01 0.62064044646E+01 0.64667571861E+01 0.65565719357E+01 0.64667486978E+01
 0.62063949624E+01 0.58011924690E+01 0.52888944622E+01 0.47130477151E+01 0.41164119208E+01
 0.35355168390E+01 0.29973738666E+01 0.25186575539E+01 0.21069311346E+01 0.17630042793E+01
 0.14834545073E+01 0.12626619394E+01 0.10941639426E+01 0.97148901392E+00 0.88875069952E+00
 0.84119209244E+00 0.84118962966E+00 0.86820436445E+00 0.92398814186E+00 0.10118465026E+01
 0.11362532035E+01 0.13023661187E+01 0.15154744458E+01 0.17803247810E+01 0.21001832191E+01
 0.24754915047E+01 0.29021309127E+01 0.33695894266E+01 0.38596155856E+01 0.43460719464E+01
 0.47965436466E+01 0.51758070506E+01 0.54506726853E+01 0.55952197569E+01 0.55952206119E+01
 0.54506767565E+01 0.51758214114E+01 0.47965795437E+01 0.43461314722E+01 0.38596806334E+01
 0.33696310747E+01 0.29021320073E+01 0.24754580266E+01 0.21001355899E+01 0.17802828401E+01
 0.15154491097E+01 0.13023581173E+01 0.11362553386E+01 0.10118491071E+01 0.92398597742E+00
 0.86819932337E+00 0.84118704630E+00 0.88874674481E+00 0.92398814186E+00 0.98506910046E+00
 0.10752414400E+01 0.11985399781E+01 0.13593200710E+01 0.15616874737E+01 0.18087619666E+01
 0.21016960698E+01 0.24384359413E+01 0.28123679449E+01 0.32111799026E+01 0.36163914000E+01
 0.40039967386E+01 0.43464737513E+01 0.46160570271E+01 0.47887534706E+01 0.48482488583E+01
 0.47887574752E+01 0.46160676827E+01 0.43464949552E+01 0.40040267147E+01 0.36164165327E+01
 0.32111813450E+01 0.28123377690E+01 0.24383844147E+01 0.21016425420E+01 0.18087220150E+01
 0.15616681134E+01 0.13593203686E+01 0.11985514319E+01 0.10752510743E+01 0.98506788386E+00
 0.92397773103E+00 0.88873710682E+00 0.87723831044E+00 0.97148567273E+00 0.10118465026E+01
 0.10752414400E+01 0.11647482446E+01 0.12839106228E+01 0.14362816159E+01 0.16248340503E+01
 0.18511993282E+01 0.21147277615E+01 0.24114534991E+01 0.27331667324E+01 0.30668847068E+01
 0.33950248122E+01 0.36965053790E+01 0.39488324553E+01 0.41309766543E+01 0.42265474239E+01
 0.42265473459E+01 0.41309780257E+01 0.39488368649E+01 0.36965088120E+01 0.33950174629E+01
 0.30668585970E+01 0.27331239009E+01 0.24114057050E+01 0.21146885598E+01 0.18511775062E+01
 0.16248325920E+01 0.14362980413E+01 0.12839358313E+01 0.11647684958E+01 0.10752463364E+01
 0.10118365125E+01 0.97147133832E+00 0.95189216149E+00 0.95189866530E+00 0.10941649691E+01
 0.11362532035E+01 0.11985399781E+01 0.12839106228E+01 0.13954358531E+01 0.15359114107E+01
 0.17072675656E+01 0.19098451469E+01 0.21415869358E+01 0.23972691839E+01 0.26679697141E+01
 0.29409928807E+01 0.32004299527E+01 0.34284446705E+01 0.36072450705E+01 0.37215131593E+01
 0.37608333938E+01 0.37215100660E+01 0.36072400882E+01 0.34284349308E+01 0.32004092680E+01
 0.29409604679E+01 0.26679346867E+01 0.23972437697E+01 0.21415777646E+01 0.19098527016E+01
 0.17072901315E+01 0.15359450723E+01 0.13954716207E+01 0.12839363894E+01 0.11985478914E+01
 0.11362449380E+01 0.10941499622E+01 0.10699212364E+01 0.10620271187E+01 0.10699321143E+01
 0.12626726650E+01 0.13023661187E+01 0.13593200710E+01 0.14362816159E+01 0.15359114107E+01
 0.16603282277E+01 0.18105608949E+01 0.19859320993E+01 0.21834420223E+01 0.23972691166E+01
 0.26185447404E+01 0.28355563878E+01 0.30344852067E+01 0.32007072163E+01 0.33205772612E+01
 0.33834424904E+01 0.33834409926E+01 0.33205726349E+01 0.32006975354E+01 0.30344674222E+01
 0.28355329617E+01 0.26185266875E+01 0.23972679042E+01 0.21834600942E+01 0.19859640481E+01
 0.18106004795E+01 0.16603696287E+01 0.15359461830E+01 0.14363010002E+01 0.13593216111E+01
 0.13023553339E+01 0.12626581376E+01 0.12377688620E+01 0.12258282582E+01 0.12258325095E+01
 0.12377802676E+01 0.14834791152E+01 0.15154744458E+01 0.15616874737E+01 0.16248340503E+01
 0.17072675656E+01 0.18105608949E+01 0.19350549933E+01 0.20794001856E+01 0.22401441216E+01
 0.24114534822E+01 0.25850856899E+01 0.27507279384E+01 0.28967848497E+01 0.30116233886E+01
 0.30851586979E+01 0.31104902768E+01 0.30851586846E+01 0.30116205158E+01 0.28967764591E+01
 0.27507166281E+01 0.25850806574E+01 0.24114639826E+01 0.22401716189E+01 0.20794383955E+01
 0.19350956145E+01 0.18105959398E+01 0.17072885334E+01 0.16248354697E+01 0.15616728197E+01
 0.15154547357E+01 0.14834639498E+01 0.14630017577E+01 0.14517676218E+01 0.14482072364E+01
 0.14517707594E+01 0.14630099015E+01 0.17630402314E+01 0.17803247810E+01 0.18087619666E+01
 0.18511993282E+01 0.19098451469E+01 0.19859320993E+01 0.20794001856E+01 0.21886056933E+01
 0.23100857172E+01 0.24384361525E+01 0.25663943247E+01 0.26852340734E+01 0.27855524893E+01
 0.28584348889E+01 0.28968333389E+01 0.28968359306E+01 0.28584397693E+01 0.27855547715E+01
 0.26852333572E+01 0.25663956034E+01 0.24384447839E+01 0.23101031556E+01 0.21886294770E+01
 0.20794250160E+01 0.19859494812E+01 0.19098453412E+01 0.18511784493E+01 0.18087277911E+01
 0.17802928633E+01 0.17630223901E+01 0.17537889191E+01 0.17496242517E+01 0.17481880211E+01
 0.17481857479E+01 0.17496206252E+01 0.17537921313E+01 0.21069643689E+01 0.21001832191E+01
 0.21016960698E+01 0.21147277615E+01 0.21415869358E+01 0.21834420223E+01 0.22401441216E+01
 0.23100857172E+01 0.23901076859E+01 0.24754917470E+01 0.25601164818E+01 0.26368838749E+01
 0.26984860355E+01 0.27384607465E+01 0.27523257866E+01 0.27384703823E+01 0.26984989044E+01
 0.26368941777E+01 0.25601224112E+01 0.24754928240E+01 0.23901039404E+01 0.23100798862E+01
 0.22401391335E+01 0.21834341215E+01 0.21415663491E+01 0.21146899867E+01 0.21016500333E+01
 0.21001456555E+01 0.21069469447E+01 0.21182145389E+01 0.21299629180E+01 0.21386570034E+01
 0.21418439271E+01 0.21386466512E+01 0.21299503968E+01 0.21182121286E+01 0.25186651862E+01
 0.24754915047E+01 0.24384359413E+01 0.24114534991E+01 0.23972691839E+01 0.23972691166E+01
 0.24114534822E+01 0.24384361525E+01 0.24754917470E+01 0.25186652853E+01 0.25630045502E+01
 0.26030091954E+01 0.26333419451E+01 0.26497142399E+01 0.26497223283E+01 0.26333617840E+01
 0.26030306663E+01 0.25630167548E+01 0.25186592221E+01 0.24754642584E+01 0.24383944466E+01
 0.24114108837E+01 0.23972321425E+01 0.23972328432E+01 0.24114125463E+01 0.24383962747E+01
 0.24754658002E+01 0.25186602710E+01 0.25630170589E+01 0.26030302154E+01 0.26333610279E+01
 0.26497216769E+01 0.26497136431E+01 0.26333412857E+01 0.26030086866E+01 0.25630043634E+01
 0.29973371729E+01 0.29021309127E+01 0.28123679449E+01 0.27331667324E+01 0.26679697141E+01
 0.26185447404E+01 0.25850856899E+01 0.25663943247E+01 0.25601164818E+01 0.25630045502E+01
 0.25712302558E+01 0.25808189988E+01 0.25882326048E+01 0.25910062531E+01 0.25882512748E+01
 0.25808466021E+01 0.25712489295E+01 0.25629947107E+01 0.25600688159E+01 0.25663191234E+01
 0.25850072349E+01 0.26184827507E+01 0.26679277970E+01 0.27331399707E+01 0.28123559367E+01
 0.29021371454E+01 0.29973595777E+01 0.30913809123E+01 0.31764876916E+01 0.32447058342E+01
 0.32889479456E+01 0.33042806504E+01 0.32889334077E+01 0.32446816544E+01 0.31764585587E+01
 0.30913511679E+01 0.35354371823E+01 0.33695894266E+01 0.32111799026E+01 0.30668847068E+01
 0.29409928807E+01 0.28355563878E+01 0.27507279384E+01 0.26852340734E+01 0.26368838749E+01
 0.26030091954E+01 0.25808189988E+01 0.25677348169E+01 0.25617501065E+01 0.25617602412E+01
 0.25677596139E+01 0.25808400126E+01 0.26029991087E+01 0.26368246282E+01 0.26851355465E+01
 0.27506242890E+01 0.28354809183E+01 0.29409581366E+01 0.30668853448E+01 0.32112068617E+01
 0.33696350316E+01 0.35354903968E+01 0.36998054389E+01 0.38517933832E+01 0.39797853878E+01
 0.40726543142E+01 0.41215519461E+01 0.41215490704E+01 0.40726453001E+01 0.39797674873E+01
 0.38517614754E+01 0.36997585683E+01 0.41163150758E+01 0.38596155856E+01 0.36163914000E+01
 0.33950248122E+01 0.32004299527E+01 0.30344852067E+01 0.28967848497E+01 0.27855524893E+01
 0.26984860355E+01 0.26333419451E+01 0.25882326048E+01 0.25617501065E+01 0.25530265112E+01
 0.25617657447E+01 0.25882496915E+01 0.26333317556E+01 0.26984229375E+01 0.27854423361E+01
 0.28966688632E+01 0.30344088658E+01 0.32004113527E+01 0.33950538865E+01 0.36164493942E+01
 0.38596862842E+01 0.41163832896E+01 0.43746826349E+01 0.46197812135E+01 0.48350748448E+01
 0.50039214224E+01 0.51118800211E+01 0.51490480758E+01 0.51118888219E+01 0.50039308824E+01
 0.48350723210E+01 0.46197557875E+01 0.43746316783E+01 0.47129686176E+01 0.43460719464E+01
 0.40039967386E+01 0.36965053790E+01 0.34284446705E+01 0.32007072163E+01 0.30116233886E+01
 0.28584348889E+01 0.27384607465E+01 0.26497142399E+01 0.25910062531E+01 0.25617602412E+01
 0.25617657447E+01 0.25910146015E+01 0.26497004612E+01 0.27383960767E+01 0.28583194821E+01
 0.30115014862E+01 0.32006349753E+01 0.34284435511E+01 0.36965546780E+01 0.40040645568E+01
 0.43461386799E+01 0.47130240072E+01 0.50897602382E+01 0.54567447755E+01 0.57911758447E+01
 0.60692800366E+01 0.62691329784E+01 0.63737324889E+01 0.63737435165E+01 0.62691600982E+01
 0.60693091121E+01 0.57911917308E+01 0.54567366119E+01 0.50897254166E+01 0.52888538417E+01
 0.47965436466E+01 0.43464737513E+01 0.39488324553E+01 0.36072450705E+01 0.33205772612E+01
 0.30851586979E+01 0.28968333389E+01 0.27523257866E+01 0.26497223283E+01 0.25882512748E+01
 0.25677596139E+01 0.25882496915E+01 0.26497004612E+01 0.27522572114E+01 0.28967146118E+01
 0.30850325279E+01 0.33205065341E+01 0.36072556285E+01 0.39488931338E+01 0.43465357284E+01
 0.47965834653E+01 0.52888732663E+01 0.58057857019E+01 0.63226588705E+01 0.68095301157E+01
 0.72339522426E+01 0.75645288296E+01 0.77748029705E+01 0.78469956950E+01 0.77748232873E+01
 0.75645626795E+01 0.72339894959E+01 0.68095600597E+01 0.63226732343E+01 0.58057826463E+01
 0.58011863058E+01 0.51758070506E+01 0.46160570271E+01 0.41309766543E+01 0.37215131593E+01
 0.33834424904E+01 0.31104902768E+01 0.28968359306E+01 0.27384703823E+01 0.26333617840E+01
 0.25808466021E+01 0.25808400126E+01 0.26333317556E+01 0.27383960767E+01 0.28967146118E+01
 0.31103622041E+01 0.33833720016E+01 0.37215297678E+01 0.41310437114E+01 0.46161109261E+01
 0.51758171742E+01 0.58011650525E+01 0.64731742252E+01 0.71627767614E+01 0.78326628088E+01
 0.84406692578E+01 0.89441053569E+01 0.93045514328E+01 0.94927280133E+01 0.94927274839E+01
 0.93045535718E+01 0.89441179462E+01 0.84406957175E+01 0.78326973813E+01 0.71628116038E+01
 0.64732060922E+01 0.62064044646E+01 0.54506726853E+01 0.47887534706E+01 0.42265474239E+01
 0.37608333938E+01 0.33834409926E+01 0.30851586846E+01 0.28584397693E+01 0.26984989044E+01
 0.26030306663E+01 0.25712489295E+01 0.26029991087E+01 0.26984229375E+01 0.28583194821E+01
 0.30850325279E+01 0.33833720016E+01 0.37608533671E+01 0.42266190051E+01 0.47888041935E+01
 0.54506640360E+01 0.62063540123E+01 0.70376633096E+01 0.79129185984E+01 0.87885331262E+01
 0.96127129191E+01 0.10330408546E+02 0.10888922853E+02 0.11243989062E+02 0.11365836187E+02
 0.11243942428E+02 0.10888859988E+02 0.10330367363E+02 0.96127110946E+01 0.87885626057E+01
 0.79129659155E+01 0.70377208301E+01 0.64667571861E+01 0.55952197569E+01 0.48482488583E+01
 0.42265473459E+01 0.37215100660E+01 0.33205726349E+01 0.30116205158E+01 0.27855547715E+01
 0.26368941777E+01 0.25630167548E+01 0.25629947107E+01 0.26368246282E+01 0.27854423361E+01
 0.30115014862E+01 0.33205065341E+01 0.37215297678E+01 0.42266190051E+01 0.48482987131E+01
 0.55952042011E+01 0.64666940077E+01 0.74480101093E+01 0.85077442237E+01 0.95985805659E+01
 0.10660871120E+02 0.11627760001E+02 0.12431067344E+02 0.13008189001E+02 0.13310245559E+02
 0.13310187448E+02 0.13008044556E+02 0.12430907505E+02 0.11627650897E+02 0.10660834572E+02
 0.95985981182E+01 0.85077933857E+01 0.74480784944E+01 0.65565719357E+01 0.55952206119E+01
 0.47887574752E+01 0.41309780257E+01 0.36072400882E+01 0.32006975354E+01 0.28967764591E+01
 0.26852333572E+01 0.25601224112E+01 0.25186592221E+01 0.25600688159E+01 0.26851355465E+01
 0.28966688632E+01 0.32006349753E+01 0.36072556285E+01 0.41310437114E+01 0.47888041935E+01
 0.55952042011E+01 0.65565090341E+01 0.76641738101E+01 0.88905635160E+01 0.10188410527E+02
 0.11493783730E+02 0.12730840258E+02 0.13817092370E+02 0.14669942082E+02 0.15216210060E+02
 0.15404379757E+02 0.15216056815E+02 0.14669698361E+02 0.13816854187E+02 0.12730682480E+02
 0.11493720496E+02 0.10188412064E+02 0.88906028463E+01 0.76642383185E+01 0.64667486978E+01
 0.54506767565E+01 0.46160676827E+01 0.39488368649E+01 0.34284349308E+01 0.30344674222E+01
 0.27507166281E+01 0.25663956034E+01 0.24754928240E+01 0.24754642584E+01 0.25663191234E+01
 0.27506242890E+01 0.30344088658E+01 0.34284435511E+01 0.39488931338E+01 0.46161109261E+01
 0.54506640360E+01 0.64666940077E+01 0.76641738101E+01 0.90227430985E+01 0.10499495505E+02
 0.12030979262E+02 0.13537265994E+02 0.14925855972E+02 0.16095354702E+02 0.16941611916E+02
 0.17385201432E+02 0.17385123139E+02 0.16941399496E+02 0.16095075248E+02 0.14925600256E+02
 0.13537097655E+02 0.12030901430E+02 0.10499476639E+02 0.90227632563E+01 0.76642251951E+01
 0.62063949624E+01 0.51758214114E+01 0.43464949552E+01 0.36965088120E+01 0.32004092680E+01
 0.28355329617E+01 0.25850806574E+01 0.24384447839E+01 0.23901039404E+01 0.24383944466E+01
 0.25850072349E+01 0.28354809183E+01 0.32004113527E+01 0.36965546780E+01 0.43465357284E+01
 0.51758171742E+01 0.62063540123E+01 0.74480101093E+01 0.88905635160E+01 0.10499495505E+02
 0.12216711415E+02 0.13963973465E+02 0.15645447987E+02 0.17142386479E+02 0.18320790762E+02
 0.19073599274E+02 0.19332403896E+02 0.19073496339E+02 0.18320596051E+02 0.17142143900E+02
 0.15645225850E+02 0.13963818709E+02 0.12216624615E+02 0.10499456462E+02 0.88905646891E+01
 0.74480461524E+01 0.58011924690E+01 0.47965795437E+01 0.40040267147E+01 0.33950174629E+01
 0.29409604679E+01 0.26185266875E+01 0.24114639826E+01 0.23101031556E+01 0.23100798862E+01
 0.24114108837E+01 0.26184827507E+01 0.29409581366E+01 0.33950538865E+01 0.40040645568E+01
 0.47965834653E+01 0.58011650525E+01 0.70376633096E+01 0.85077442237E+01 0.10188410527E+02
 0.12030979262E+02 0.13963973465E+02 0.15895100394E+02 0.17696914241E+02 0.19212428908E+02
 0.20307036119E+02 0.20881330086E+02 0.20881313932E+02 0.20306971138E+02 0.19212294282E+02
 0.17696729283E+02 0.15894917922E+02 0.13963833858E+02 0.12030888929E+02 0.10188361559E+02
 0.85077355740E+01 0.70376877318E+01 0.52888944622E+01 0.43461314722E+01 0.36164165327E+01
 0.30668585970E+01 0.26679346867E+01 0.23972679042E+01 0.22401716189E+01 0.21886294770E+01
 0.22401391335E+01 0.23972321425E+01 0.26679277970E+01 0.30668853448E+01 0.36164493942E+01
 0.43461386799E+01 0.52888732663E+01 0.64731742252E+01 0.79129185984E+01 0.95985805659E+01
 0.11493783730E+02 0.13537265994E+02 0.15645447987E+02 0.17696914241E+02 0.19521004508E+02
 0.20959150382E+02 0.21881633406E+02 0.22199812359E+02 0.21881654949E+02 0.20959137929E+02
 0.19520913500E+02 0.17696761613E+02 0.15645288980E+02 0.13537140442E+02 0.11493699806E+02
 0.95985348345E+01 0.79129116504E+01 0.64731960099E+01 0.47130477151E+01 0.38596806334E+01
 0.32111813450E+01 0.27331239009E+01 0.23972437697E+01 0.21834600942E+01 0.20794383955E+01
 0.20794250160E+01 0.21834341215E+01 0.23972328432E+01 0.27331399707E+01 0.32112068617E+01
 0.38596862842E+01 0.47130240072E+01 0.58057857019E+01 0.71627767614E+01 0.87885331262E+01
 0.10660871120E+02 0.12730840258E+02 0.14925855972E+02 0.17142386479E+02 0.19212428908E+02
 0.20959150382E+02 0.22227907203E+02 0.22896969658E+02 0.22897009573E+02 0.22227979107E+02
 0.20959164591E+02 0.19212346580E+02 0.17142246255E+02 0.14925717346E+02 0.12730733101E+02
 0.10660798714E+02 0.87884977685E+01 0.71627820053E+01 0.58058163493E+01 0.41164119208E+01
 0.33696310747E+01 0.28123377690E+01 0.24114057050E+01 0.21415777646E+01 0.19859640481E+01
 0.19350956145E+01 0.19859494812E+01 0.21415663491E+01 0.24114125463E+01 0.28123559367E+01
 0.33696350316E+01 0.41163832896E+01 0.50897602382E+01 0.63226588705E+01 0.78326628088E+01
 0.96127129191E+01 0.11627760001E+02 0.13817092370E+02 0.16095354702E+02 0.18320790762E+02
 0.20307036119E+02 0.21881633406E+02 0.22896969658E+02 0.23248314382E+02 0.22897066026E+02
 0.21881730426E+02 0.20307045695E+02 0.18320709785E+02 0.16095237992E+02 0.13816981839E+02
 0.11627668633E+02 0.96126502844E+01 0.78326463165E+01 0.63226897181E+01 0.50898087945E+01
 0.35355168390E+01 0.29021320073E+01 0.24383844147E+01 0.21146885598E+01 0.19098527016E+01
 0.18106004795E+01 0.18105959398E+01 0.19098453412E+01 0.21146899867E+01 0.24383962747E+01
 0.29021371454E+01 0.35354903968E+01 0.43746826349E+01 0.54567447755E+01 0.68095301157E+01
 0.84406692578E+01 0.10330408546E+02 0.12431067344E+02 0.14669942082E+02 0.16941611916E+02
 0.19073599274E+02 0.20881330086E+02 0.22199812359E+02 0.22897009573E+02 0.22897066026E+02
 0.22199930455E+02 0.20881414036E+02 0.19073603742E+02 0.16941559474E+02 0.14669865303E+02
 0.12430979462E+02 0.10330326767E+02 0.84406283428E+01 0.68095536647E+01 0.54568121912E+01
 0.43747456285E+01 0.29973738666E+01 0.24754580266E+01 0.21016425420E+01 0.18511775062E+01
 0.17072901315E+01 0.16603696287E+01 0.17072885334E+01 0.18511784493E+01 0.21016500333E+01
 0.24754658002E+01 0.29973595777E+01 0.36998054389E+01 0.46197812135E+01 0.57911758447E+01
 0.72339522426E+01 0.89441053569E+01 0.10888922853E+02 0.13008189001E+02 0.15216210060E+02
 0.17385201432E+02 0.19332403896E+02 0.20881313932E+02 0.21881654949E+02 0.22227979107E+02
 0.21881730426E+02 0.20881414036E+02 0.19332479636E+02 0.17385238048E+02 0.15216206280E+02
 0.13008140360E+02 0.10888845503E+02 0.89440486148E+01 0.72339650561E+01 0.57912557297E+01
 0.46198757484E+01 0.36998644426E+01 0.25186575539E+01 0.21001355899E+01 0.18087220150E+01
 0.16248325920E+01 0.15359450723E+01 0.15359461830E+01 0.16248354697E+01 0.18087277911E+01
 0.21001456555E+01 0.25186602710E+01 0.30913809123E+01 0.38517933832E+01 0.48350748448E+01
 0.60692800366E+01 0.75645288296E+01 0.93045514328E+01 0.11243989062E+02 0.13310245559E+02
 0.15404379757E+02 0.17385123139E+02 0.19073496339E+02 0.20306971138E+02 0.20959137929E+02
 0.20959164591E+02 0.20307045695E+02 0.19073603742E+02 0.17385238048E+02 0.15404463556E+02
 0.13310261672E+02 0.11243940765E+02 0.93044942827E+01 0.75645321642E+01 0.60693641991E+01
 0.48351932627E+01 0.38518819991E+01 0.30914141371E+01 0.21069311346E+01 0.17802828401E+01
 0.15616681134E+01 0.14362980413E+01 0.13954716207E+01 0.14363010002E+01 0.15616728197E+01
 0.17802928633E+01 0.21069469447E+01 0.25630170589E+01 0.31764876916E+01 0.39797853878E+01
 0.50039214224E+01 0.62691329784E+01 0.77748029705E+01 0.94927280133E+01 0.11365836187E+02
 0.13310187448E+02 0.15216056815E+02 0.16941399496E+02 0.18320596051E+02 0.19212294282E+02
 0.19520913500E+02 0.19212346580E+02 0.18320709785E+02 0.16941559474E+02 0.15216206280E+02
 0.13310261672E+02 0.11365821296E+02 0.94926783445E+01 0.77747984430E+01 0.62692115640E+01
 0.50040490850E+01 0.39798936930E+01 0.31765355230E+01 0.25630156348E+01 0.17630042793E+01
 0.15154491097E+01 0.13593203686E+01 0.12839358313E+01 0.12839363894E+01 0.13593216111E+01
 0.15154547357E+01 0.17630223901E+01 0.21182145389E+01 0.26030302154E+01 0.32447058342E+01
 0.40726543142E+01 0.51118800211E+01 0.63737324889E+01 0.78469956950E+01 0.94927274839E+01
 0.11243942428E+02 0.13008044556E+02 0.14669698361E+02 0.16095075248E+02 0.17142143900E+02
 0.17696729283E+02 0.17696761613E+02 0.17142246255E+02 0.16095237992E+02 0.14669865303E+02
 0.13008140360E+02 0.11243940765E+02 0.94926783445E+01 0.78469818985E+01 0.63737995606E+01
 0.51120036494E+01 0.40727694050E+01 0.32447624737E+01 0.26030280651E+01 0.21181890142E+01
 0.14834545073E+01 0.13023581173E+01 0.11985514319E+01 0.11647684958E+01 0.11985478914E+01
 0.13023553339E+01 0.14834639498E+01 0.17537889191E+01 0.21299629180E+01 0.26333610279E+01
 0.32889479456E+01 0.41215519461E+01 0.51490480758E+01 0.63737435165E+01 0.77748232873E+01
 0.93045535718E+01 0.10888859988E+02 0.12430907505E+02 0.13816854187E+02 0.14925600256E+02
 0.15645225850E+02 0.15894917922E+02 0.15645288980E+02 0.14925717346E+02 0.13816981839E+02
 0.12430979462E+02 0.10888845503E+02 0.93044942827E+01 0.77747984430E+01 0.63737995606E+01
 0.51491648051E+01 0.41216681553E+01 0.32890109796E+01 0.26333606672E+01 0.21299291120E+01
 0.17537595264E+01 0.12626619394E+01 0.11362553386E+01 0.10752510743E+01 0.10752463364E+01
 0.11362449380E+01 0.12626581376E+01 0.14630017577E+01 0.17496242517E+01 0.21386570034E+01
 0.26497216769E+01 0.33042806504E+01 0.41215490704E+01 0.51118888219E+01 0.62691600982E+01
 0.75645626795E+01 0.89441179462E+01 0.10330367363E+02 0.11627650897E+02 0.12730682480E+02
 0.13537097655E+02 0.13963818709E+02 0.13963833858E+02 0.13537140442E+02 0.12730733101E+02
 0.11627668633E+02 0.10330326767E+02 0.89440486148E+01 0.75645321642E+01 0.62692115640E+01
 0.51120036494E+01 0.41216681553E+01 0.33043512347E+01 0.26497280413E+01 0.21386215792E+01
 0.17495851272E+01 0.14629842334E+01 0.10941639426E+01 0.10118491071E+01 0.98506788386E+00
 0.10118365125E+01 0.10941499622E+01 0.12377688620E+01 0.14517676218E+01 0.17481880211E+01
 0.21418439271E+01 0.26497136431E+01 0.32889334077E+01 0.40726453001E+01 0.50039308824E+01
 0.60693091121E+01 0.72339894959E+01 0.84406957175E+01 0.96127110946E+01 0.10660834572E+02
 0.11493720496E+02 0.12030901430E+02 0.12216624615E+02 0.12030888929E+02 0.11493699806E+02
 0.10660798714E+02 0.96126502844E+01 0.84406283428E+01 0.72339650561E+01 0.60693641991E+01
 0.50040490850E+01 0.40727694050E+01 0.32890109796E+01 0.26497280413E+01 0.21418129754E+01
 0.17481450160E+01 0.14517407797E+01 0.12377673687E+01 0.97148901392E+00 0.92398597742E+00
 0.92397773103E+00 0.97147133832E+00 0.10699212364E+01 0.12258282582E+01 0.14482072364E+01
 0.17481857479E+01 0.21386466512E+01 0.26333412857E+01 0.32446816544E+01 0.39797674873E+01
 0.48350723210E+01 0.57911917308E+01 0.68095600597E+01 0.78326973813E+01 0.87885626057E+01
 0.95985981182E+01 0.10188412064E+02 0.10499476639E+02 0.10499456462E+02 0.10188361559E+02
 0.95985348345E+01 0.87884977685E+01 0.78326463165E+01 0.68095536647E+01 0.57912557297E+01
 0.48351932627E+01 0.39798936930E+01 0.32447624737E+01 0.26333606672E+01 0.21386215792E+01
 0.17481450160E+01 0.14481754555E+01 0.12258185742E+01 0.10699321392E+01 0.88875069952E+00
 0.86819932337E+00 0.88873710682E+00 0.95189216149E+00 0.10620271187E+01 0.12258325095E+01
 0.14517707594E+01 0.17496206252E+01 0.21299503968E+01 0.26030086866E+01 0.31764585587E+01
 0.38517614754E+01 0.46197557875E+01 0.54567366119E+01 0.63226732343E+01 0.71628116038E+01
 0.79129659155E+01 0.85077933857E+01 0.88906028463E+01 0.90227632563E+01 0.88905646891E+01
 0.85077355740E+01 0.79129116504E+01 0.71627820053E+01 0.63226897181E+01 0.54568121912E+01
 0.46198757484E+01 0.38518819991E+01 0.31765355230E+01 0.26030280651E+01 0.21299291120E+01
 0.17495851272E+01 0.14517407797E+01 0.12258185742E+01 0.10620315950E+01 0.95190806379E+00
 0.84119209244E+00 0.84118704630E+00 0.87723831044E+00 0.95189866530E+00 0.10699321143E+01
 0.12377802676E+01 0.14630099015E+01 0.17537921313E+01 0.21182121286E+01 0.25630043634E+01
 0.30913511679E+01 0.36997585683E+01 0.43746316783E+01 0.50897254166E+01 0.58057826463E+01
 0.64732060922E+01 0.70377208301E+01 0.74480784944E+01 0.76642383185E+01 0.76642251951E+01
 0.74480461524E+01 0.70376877318E+01 0.64731960099E+01 0.58058163493E+01 0.50898087945E+01
 0.43747456285E+01 0.36998644426E+01 0.30914141371E+01 0.25630156348E+01 0.21181890142E+01
 0.17537595264E+01 0.14629842334E+01 0.12377673687E+01 0.10699321392E+01 0.95190806379E+00
 0.87724970741E+00 0.84118984828E+00 0.86820446323E+00 0.92398828139E+00 0.10118466744E+01
 0.11362532779E+01 0.13023660985E+01 0.15154744569E+01 0.17803248394E+01 0.21001832394E+01
 0.24754915161E+01 0.29021310241E+01 0.33695895814E+01 0.38596155716E+01 0.43460716384E+01
 0.47965430412E+01 0.51758061314E+01 0.54506715338E+01 0.55952187807E+01 0.55952203632E+01
 0.54506774249E+01 0.51758226247E+01 0.47965806313E+01 0.43461317709E+01 0.38596796939E+01
 0.33696289475E+01 0.29021293960E+01 0.24754559106E+01 0.21001345916E+01 0.17802830241E+01
 0.15154502472E+01 0.13023598617E+01 0.11362572091E+01 0.10118506478E+01 0.92398703974E+00
 0.86820002934E+00 0.84118749734E+00 0.86820446323E+00 0.90292372971E+00 0.96302037257E+00
 0.10516147415E+01 0.11726248761E+01 0.13303408251E+01 0.15288688861E+01 0.17713834731E+01
 0.20591188015E+01 0.23901074567E+01 0.27578270026E+01 0.31500895117E+01 0.35486183473E+01
 0.39297311285E+01 0.42663518434E+01 0.45312324094E+01 0.47008701673E+01 0.47593030093E+01
 0.47008733874E+01 0.45312420862E+01 0.42663730913E+01 0.39297642142E+01 0.35486519429E+01
 0.31501053543E+01 0.27578142712E+01 0.23900710886E+01 0.20590740701E+01 0.17713456114E+01
 0.15288472551E+01 0.13303368798E+01 0.11726315203E+01 0.10516201539E+01 0.96301670648E+00
 0.90291291062E+00 0.86819531165E+00 0.85685773258E+00 0.92398828139E+00 0.96302037257E+00
 0.10241343392E+01 0.11101814385E+01 0.12245516379E+01 0.13707644168E+01 0.15518769942E+01
 0.17696767070E+01 0.20236831832E+01 0.23100855748E+01 0.26208420117E+01 0.29432245922E+01
 0.32600769081E+01 0.35509603094E+01 0.37942048344E+01 0.39696575672E+01 0.40616693766E+01
 0.40616683667E+01 0.39696569191E+01 0.37942087144E+01 0.35509687499E+01 0.32600831194E+01
 0.29432192814E+01 0.26208208704E+01 0.23100525899E+01 0.20236476263E+01 0.17696482644E+01
 0.15518626326E+01 0.13707658740E+01 0.12245631767E+01 0.11101917632E+01 0.10241341150E+01
 0.96300924065E+00 0.92397464566E+00 0.90499241278E+00 0.90499841677E+00 0.10118466744E+01
 0.10516147415E+01 0.11101814385E+01 0.11901879831E+01 0.12946060593E+01 0.14263033199E+01
 0.15874109017E+01 0.17785146360E+01 0.19977735201E+01 0.22401441026E+01 0.24969226920E+01
 0.27557909427E+01 0.30014781697E+01 0.32170654111E+01 0.33858556604E+01 0.34935937912E+01
 0.35306413104E+01 0.34935885401E+01 0.33858489730E+01 0.32170586828E+01 0.30014679817E+01
 0.27557741409E+01 0.24969009404E+01 0.22401220782E+01 0.19977553554E+01 0.17785038939E+01
 0.15874112883E+01 0.14263157522E+01 0.12946251051E+01 0.11902037252E+01 0.11101861522E+01
 0.10516079417E+01 0.10118346313E+01 0.98882889316E+00 0.98130947230E+00 0.98883774975E+00
 0.11362532779E+01 0.11726248761E+01 0.12245516379E+01 0.12946060593E+01 0.13854706212E+01
 0.14994629716E+01 0.16379020417E+01 0.18003863599E+01 0.19841186618E+01 0.21834419965E+01
 0.23897379606E+01 0.25917799240E+01 0.27765621071E+01 0.29305674778E+01 0.30413752369E+01
 0.30993974125E+01 0.30993947369E+01 0.30413686279E+01 0.29305583570E+01 0.27765492721E+01
 0.25917634086E+01 0.23897228523E+01 0.21834346984E+01 0.19841210724E+01 0.18003967927E+01
 0.16379195037E+01 0.14994862833E+01 0.13854945531E+01 0.12946228008E+01 0.12245568818E+01
 0.11726205354E+01 0.11362446966E+01 0.11132808212E+01 0.11021979562E+01 0.11022009394E+01
 0.11132884253E+01 0.13023660985E+01 0.13303408251E+01 0.13707644168E+01 0.14263033199E+01
 0.14994629716E+01 0.15921015575E+01 0.17048672566E+01 0.18366438603E+01 0.19841186367E+01
 0.21415868382E+01 0.23010790932E+01 0.24528500011E+01 0.25862201654E+01 0.26907252064E+01
 0.27574623151E+01 0.27804175793E+01 0.27574617495E+01 0.26907224083E+01 0.25862131709E+01
 0.24528399866E+01 0.23010721072E+01 0.21415897718E+01 0.19841334273E+01 0.18366672211E+01
 0.17048946363E+01 0.15921283102E+01 0.14994830691E+01 0.14263116599E+01 0.13707616097E+01
 0.13303329341E+01 0.13023588652E+01 0.12843836164E+01 0.12744451265E+01 0.12712787645E+01
 0.12744474692E+01 0.12843883240E+01 0.15154744569E+01 0.15288688861E+01 0.15518769942E+01
 0.15874109017E+01 0.16379020417E+01 0.17048672566E+01 0.17884873305E+01 0.18872568934E+01
 0.19977734792E+01 0.21147277106E+01 0.22311416193E+01 0.23388822230E+01 0.24294506690E+01
 0.24949989046E+01 0.25294428069E+01 0.25294452766E+01 0.24950033466E+01 0.24294518116E+01
 0.23388790265E+01 0.22311388468E+01 0.21147314060E+01 0.19977861873E+01 0.18872770611E+01
 0.17885107377E+01 0.17048873400E+01 0.16379111206E+01 0.15874049843E+01 0.15518603393E+01
 0.15288517064E+01 0.15154647737E+01 0.15087108301E+01 0.15059143385E+01 0.15050582584E+01
 0.15050571090E+01 0.15059124131E+01 0.15087124531E+01 0.17803248394E+01 0.17713834731E+01
 0.17696767070E+01 0.17785146360E+01 0.18003863599E+01 0.18366438603E+01 0.18872568934E+01
 0.19506552261E+01 0.20236831765E+01 0.21016961289E+01 0.21788369655E+01 0.22485319043E+01
 0.23042154122E+01 0.23402215683E+01 0.23526851441E+01 0.23402283492E+01 0.23042228922E+01
 0.22485349331E+01 0.21788355914E+01 0.21016933323E+01 0.20236819078E+01 0.19506580064E+01
 0.18872641507E+01 0.18366506239E+01 0.18003837645E+01 0.17784977837E+01 0.17696504500E+01
 0.17713591094E+01 0.17803115951E+01 0.17927549012E+01 0.18049591118E+01 0.18137307018E+01
 0.18169070899E+01 0.18137241667E+01 0.18049519599E+01 0.17927553064E+01 0.21001832394E+01
 0.20591188015E+01 0.20236831832E+01 0.19977735201E+01 0.19841186618E+01 0.19841186367E+01
 0.19977734792E+01 0.20236831765E+01 0.20591188285E+01 0.21001832681E+01 0.21421040502E+01
 0.21797083196E+01 0.22080854130E+01 0.22233536603E+01 0.22233584902E+01 0.22080960520E+01
 0.21797167777E+01 0.21421039639E+01 0.21001722450E+01 0.20590990058E+01 0.20236616550E+01
 0.19977582885E+01 0.19841106766E+01 0.19841100022E+01 0.19977565993E+01 0.20236597953E+01
 0.20590979001E+01 0.21001724074E+01 0.21421052915E+01 0.21797187526E+01 0.22080980963E+01
 0.22233601777E+01 0.22233547753E+01 0.22080859668E+01 0.21797084986E+01 0.21421040661E+01
 0.24754915161E+01 0.23901074567E+01 0.23100855748E+01 0.22401441026E+01 0.21834419965E+01
 0.21415868382E+01 0.21147277106E+01 0.21016961289E+01 0.21001832681E+01 0.21069643253E+01