   2   2   0   0
  0.2109493E+02  0.3907578E-09  0.3907578E-09  0.3907578E-09  0.5000000E-15
  1.000000000000000E-004
  CAR 
 unknown system                          
     16.47912967     -8.24921355  301      5.65940042      1.00000000
     -8.249  0.0000E+00  0.0000E+00
     -8.167  0.0000E+00  0.0000E+00
     -8.084  0.0000E+00  0.0000E+00
     -8.002  0.0000E+00  0.0000E+00
     -7.920  0.0000E+00  0.0000E+00
     -7.837  0.0000E+00  0.0000E+00
     -7.755  0.0000E+00  0.0000E+00
     -7.672  0.0000E+00  0.0000E+00
     -7.590  0.0000E+00  0.0000E+00
     -7.507  0.0000E+00  0.0000E+00
     -7.425  0.3508E-18  0.2891E-19
     -7.343  0.3332E-16  0.2776E-17
     -7.260  0.2757E-14  0.2300E-15
     -7.178  0.1622E-12  0.1360E-13
     -7.095  0.6838E-11  0.5773E-12
     -7.013  0.2068E-09  0.1762E-10
     -6.930  0.4493E-08  0.3880E-09
     -6.848  0.7036E-07  0.6187E-08
     -6.766  0.7971E-06  0.7189E-07
     -6.683  0.6576E-05  0.6139E-06
     -6.601  0.3987E-04  0.3900E-05
     -6.518  0.1801E-03  0.1874E-04
     -6.436  0.6171E-03  0.6961E-04
     -6.353  0.1640E-02  0.2048E-03
     -6.271  0.3463E-02  0.4902E-03
     -6.189  0.5971E-02  0.9823E-03
     -6.106  0.8697E-02  0.1699E-02
     -6.024  0.1121E-01  0.2623E-02
     -5.941  0.1350E-01  0.3736E-02
     -5.859  0.1571E-01  0.5031E-02
     -5.776  0.1762E-01  0.6484E-02
     -5.694  0.1883E-01  0.8036E-02
     -5.612  0.1971E-01  0.9660E-02
     -5.529  0.2132E-01  0.1142E-01
     -5.447  0.2384E-01  0.1338E-01
     -5.364  0.2591E-01  0.1552E-01
     -5.282  0.2644E-01  0.1770E-01
     -5.199  0.2632E-01  0.1987E-01
     -5.117  0.2717E-01  0.2211E-01
     -5.035  0.2920E-01  0.2451E-01
     -4.952  0.3153E-01  0.2711E-01
     -4.870  0.3381E-01  0.2990E-01
     -4.787  0.3593E-01  0.3286E-01
     -4.705  0.3730E-01  0.3593E-01
     -4.622  0.3731E-01  0.3901E-01
     -4.540  0.3653E-01  0.4202E-01
     -4.458  0.3710E-01  0.4508E-01
     -4.375  0.4124E-01  0.4848E-01
     -4.293  0.4819E-01  0.5245E-01
     -4.210  0.5416E-01  0.5692E-01
     -4.128  0.5666E-01  0.6159E-01
     -4.045  0.5692E-01  0.6628E-01
     -3.963  0.5700E-01  0.7098E-01
     -3.881  0.5668E-01  0.7565E-01
     -3.798  0.5430E-01  0.8012E-01
     -3.716  0.5019E-01  0.8426E-01
     -3.633  0.4798E-01  0.8822E-01
     -3.551  0.5069E-01  0.9239E-01
     -3.468  0.5593E-01  0.9701E-01
     -3.386  0.5760E-01  0.1018E+00
     -3.304  0.5233E-01  0.1061E+00
     -3.221  0.4249E-01  0.1096E+00
     -3.139  0.3303E-01  0.1123E+00
     -3.056  0.2717E-01  0.1145E+00
     -2.974  0.2587E-01  0.1167E+00
     -2.891  0.2894E-01  0.1190E+00
     -2.809  0.3462E-01  0.1219E+00
     -2.727  0.3891E-01  0.1251E+00
     -2.644  0.3758E-01  0.1282E+00
     -2.562  0.2972E-01  0.1307E+00
     -2.479  0.1870E-01  0.1322E+00
     -2.397  0.9159E-02  0.1330E+00
     -2.314  0.3473E-02  0.1332E+00
     -2.232  0.1312E-02  0.1333E+00
     -2.150  0.1894E-02  0.1335E+00
     -2.067  0.5933E-02  0.1340E+00
     -1.985  0.1497E-01  0.1352E+00
     -1.902  0.2782E-01  0.1375E+00
     -1.820  0.3845E-01  0.1407E+00
     -1.737  0.4079E-01  0.1441E+00
     -1.655  0.3599E-01  0.1470E+00
     -1.573  0.3178E-01  0.1496E+00
     -1.490  0.3511E-01  0.1525E+00
     -1.408  0.4720E-01  0.1564E+00
     -1.325  0.6340E-01  0.1616E+00
     -1.243  0.7671E-01  0.1680E+00
     -1.160  0.8290E-01  0.1748E+00
     -1.078  0.8141E-01  0.1815E+00
     -0.996  0.7270E-01  0.1875E+00
     -0.913  0.5952E-01  0.1924E+00
     -0.831  0.4860E-01  0.1964E+00
     -0.748  0.4461E-01  0.2001E+00
     -0.666  0.4384E-01  0.2037E+00
     -0.583  0.3942E-01  0.2070E+00
     -0.501  0.3108E-01  0.2095E+00
     -0.419  0.2502E-01  0.2116E+00
     -0.336  0.2555E-01  0.2137E+00
     -0.254  0.3126E-01  0.2163E+00
     -0.171  0.3729E-01  0.2193E+00
     -0.089  0.3848E-01  0.2225E+00
     -0.006  0.3294E-01  0.2252E+00
      0.076  0.2413E-01  0.2272E+00
      0.158  0.1783E-01  0.2287E+00
      0.241  0.1740E-01  0.2301E+00
      0.323  0.2175E-01  0.2319E+00
      0.406  0.2611E-01  0.2341E+00
      0.488  0.2560E-01  0.2362E+00
      0.571  0.1994E-01  0.2378E+00
      0.653  0.1362E-01  0.2389E+00
      0.735  0.1089E-01  0.2398E+00
      0.818  0.1210E-01  0.2408E+00
      0.900  0.1562E-01  0.2421E+00
      0.983  0.2084E-01  0.2438E+00
      1.065  0.2790E-01  0.2461E+00
      1.148  0.3586E-01  0.2491E+00
      1.230  0.4324E-01  0.2527E+00
      1.312  0.4934E-01  0.2567E+00
      1.395  0.5517E-01  0.2613E+00
      1.477  0.6296E-01  0.2665E+00
      1.560  0.7305E-01  0.2725E+00
      1.642  0.8142E-01  0.2792E+00
      1.725  0.8335E-01  0.2861E+00
      1.807  0.7907E-01  0.2926E+00
      1.889  0.7340E-01  0.2986E+00
      1.972  0.7059E-01  0.3045E+00
      2.054  0.7085E-01  0.3103E+00
      2.137  0.7174E-01  0.3162E+00
      2.219  0.7246E-01  0.3222E+00
      2.302  0.7565E-01  0.3284E+00
      2.384  0.8420E-01  0.3354E+00
      2.466  0.9558E-01  0.3432E+00
      2.549  0.1020E+00  0.3516E+00
      2.631  0.9964E-01  0.3599E+00
      2.714  0.9470E-01  0.3677E+00
      2.796  0.9506E-01  0.3755E+00
      2.879  0.9959E-01  0.3837E+00
      2.961  0.1011E+00  0.3920E+00
      3.043  0.9739E-01  0.4001E+00
      3.126  0.9465E-01  0.4079E+00
      3.208  0.9870E-01  0.4160E+00
      3.291  0.1058E+00  0.4247E+00
      3.373  0.1056E+00  0.4334E+00
      3.456  0.9435E-01  0.4412E+00
      3.538  0.7964E-01  0.4478E+00
      3.620  0.7276E-01  0.4538E+00
      3.703  0.7781E-01  0.4602E+00
      3.785  0.8860E-01  0.4675E+00
      3.868  0.9502E-01  0.4753E+00
      3.950  0.9173E-01  0.4829E+00
      4.033  0.8088E-01  0.4895E+00
      4.115  0.6892E-01  0.4952E+00
      4.197  0.6168E-01  0.5003E+00
      4.280  0.5991E-01  0.5052E+00
      4.362  0.5823E-01  0.5100E+00
      4.445  0.5108E-01  0.5143E+00
      4.527  0.3983E-01  0.5175E+00
      4.610  0.3099E-01  0.5201E+00
      4.692  0.2819E-01  0.5224E+00
      4.774  0.2861E-01  0.5248E+00
      4.857  0.2723E-01  0.5270E+00
      4.939  0.2254E-01  0.5289E+00
      5.022  0.1690E-01  0.5303E+00
      5.104  0.1263E-01  0.5313E+00
      5.187  0.9702E-02  0.5321E+00
      5.269  0.7079E-02  0.5327E+00
      5.351  0.4424E-02  0.5331E+00
      5.434  0.2212E-02  0.5332E+00
      5.516  0.8519E-03  0.5333E+00
      5.599  0.2495E-03  0.5333E+00
      5.681  0.7713E-04  0.5333E+00
      5.764  0.1583E-03  0.5333E+00
      5.846  0.6728E-03  0.5334E+00
      5.928  0.2189E-02  0.5336E+00
      6.011  0.5239E-02  0.5340E+00
      6.093  0.9387E-02  0.5348E+00
      6.176  0.1314E-01  0.5359E+00
      6.258  0.1576E-01  0.5372E+00
      6.341  0.1879E-01  0.5387E+00
      6.423  0.2419E-01  0.5407E+00
      6.505  0.3116E-01  0.5433E+00
      6.588  0.3670E-01  0.5463E+00
      6.670  0.3998E-01  0.5496E+00
      6.753  0.4360E-01  0.5532E+00
      6.835  0.4918E-01  0.5573E+00
      6.918  0.5467E-01  0.5618E+00
      7.000  0.5782E-01  0.5665E+00
      7.082  0.5929E-01  0.5714E+00
      7.165  0.6188E-01  0.5765E+00
      7.247  0.6931E-01  0.5822E+00
      7.330  0.8413E-01  0.5892E+00
      7.412  0.1034E+00  0.5977E+00
      7.494  0.1178E+00  0.6074E+00
      7.577  0.1188E+00  0.6172E+00
      7.659  0.1077E+00  0.6261E+00
      7.742  0.9388E-01  0.6338E+00
      7.824  0.8568E-01  0.6409E+00
      7.907  0.8471E-01  0.6478E+00
      7.989  0.8593E-01  0.6549E+00
      8.071  0.8346E-01  0.6618E+00
      8.154  0.7703E-01  0.6682E+00
      8.236  0.7158E-01  0.6741E+00
      8.319  0.7251E-01  0.6800E+00
      8.401  0.8323E-01  0.6869E+00
      8.484  0.1028E+00  0.6954E+00
      8.566  0.1240E+00  0.7056E+00
      8.648  0.1366E+00  0.7169E+00
      8.731  0.1365E+00  0.7281E+00
      8.813  0.1284E+00  0.7387E+00
      8.896  0.1201E+00  0.7486E+00
      8.978  0.1142E+00  0.7580E+00
      9.061  0.1084E+00  0.7669E+00
      9.143  0.1014E+00  0.7753E+00
      9.225  0.9493E-01  0.7831E+00
      9.308  0.9020E-01  0.7906E+00
      9.390  0.8736E-01  0.7978E+00
      9.473  0.8636E-01  0.8049E+00
      9.555  0.8626E-01  0.8120E+00
      9.638  0.8600E-01  0.8191E+00
      9.720  0.8626E-01  0.8262E+00
      9.802  0.8768E-01  0.8334E+00
      9.885  0.8898E-01  0.8407E+00
      9.967  0.9011E-01  0.8482E+00
     10.050  0.9374E-01  0.8559E+00
     10.132  0.9965E-01  0.8641E+00
     10.215  0.1016E+00  0.8725E+00
     10.297  0.9434E-01  0.8803E+00
     10.379  0.8092E-01  0.8869E+00
     10.462  0.6909E-01  0.8926E+00
     10.544  0.6304E-01  0.8978E+00
     10.627  0.6126E-01  0.9029E+00
     10.709  0.6184E-01  0.9080E+00
     10.792  0.6693E-01  0.9135E+00
     10.874  0.7858E-01  0.9200E+00
     10.956  0.9256E-01  0.9276E+00
     11.039  0.1014E+00  0.9360E+00
     11.121  0.1012E+00  0.9443E+00
     11.204  0.9231E-01  0.9519E+00
     11.286  0.7715E-01  0.9583E+00
     11.369  0.6073E-01  0.9633E+00
     11.451  0.4930E-01  0.9673E+00
     11.533  0.4625E-01  0.9711E+00
     11.616  0.4873E-01  0.9752E+00
     11.698  0.5000E-01  0.9793E+00
     11.781  0.4683E-01  0.9831E+00
     11.863  0.4298E-01  0.9867E+00
     11.946  0.4503E-01  0.9904E+00
     12.028  0.5660E-01  0.9951E+00
     12.110  0.7420E-01  0.1001E+01
     12.193  0.8701E-01  0.1008E+01
     12.275  0.8499E-01  0.1015E+01
     12.358  0.6849E-01  0.1021E+01
     12.440  0.4705E-01  0.1025E+01
     12.523  0.3089E-01  0.1027E+01
     12.605  0.2499E-01  0.1029E+01
     12.687  0.2721E-01  0.1032E+01
     12.770  0.3055E-01  0.1034E+01
     12.852  0.3036E-01  0.1037E+01
     12.935  0.2857E-01  0.1039E+01
     13.017  0.2905E-01  0.1041E+01
     13.100  0.3196E-01  0.1044E+01
     13.182  0.3537E-01  0.1047E+01
     13.264  0.3836E-01  0.1050E+01
     13.347  0.3952E-01  0.1053E+01
     13.429  0.3568E-01  0.1056E+01
     13.512  0.2596E-01  0.1059E+01
     13.594  0.1443E-01  0.1060E+01
     13.677  0.5994E-02  0.1060E+01
     13.759  0.2025E-02  0.1060E+01
     13.841  0.1291E-02  0.1061E+01
     13.924  0.2648E-02  0.1061E+01
     14.006  0.5396E-02  0.1061E+01
     14.089  0.8171E-02  0.1062E+01
     14.171  0.9303E-02  0.1063E+01
     14.254  0.8790E-02  0.1063E+01
     14.336  0.8396E-02  0.1064E+01
     14.418  0.8921E-02  0.1065E+01
     14.501  0.8962E-02  0.1066E+01
     14.583  0.7194E-02  0.1066E+01
     14.666  0.4307E-02  0.1066E+01
     14.748  0.1885E-02  0.1067E+01
     14.831  0.5994E-03  0.1067E+01
     14.913  0.1382E-03  0.1067E+01
     14.995  0.2306E-04  0.1067E+01
     15.078  0.2783E-05  0.1067E+01
     15.160  0.2424E-06  0.1067E+01
     15.243  0.1523E-07  0.1067E+01
     15.325  0.6890E-09  0.1067E+01
     15.408  0.2242E-10  0.1067E+01
     15.490  0.5242E-12  0.1067E+01
     15.572  0.8797E-14  0.1067E+01
     15.655  0.1052E-15  0.1067E+01
     15.737  0.0000E+00  0.1067E+01
     15.820  0.0000E+00  0.1067E+01
     15.902  0.0000E+00  0.1067E+01
     15.985  0.0000E+00  0.1067E+01
     16.067  0.0000E+00  0.1067E+01
     16.149  0.0000E+00  0.1067E+01
     16.232  0.0000E+00  0.1067E+01
     16.314  0.0000E+00  0.1067E+01
     16.397  0.0000E+00  0.1067E+01
     16.479  0.0000E+00  0.1067E+01
