    2    2   15    1
  0.2109493E+02  0.3907578E-09  0.3907578E-09  0.3907578E-09  0.5000000E-15
  1.000000000000000E-004
  CAR 
 unknown system                          
      8     60      8
 
  0.6250000E-01  0.6250000E-01  0.6250000E-01  0.3906250E-02
    1       -6.249214   1.000000
    2        4.772736   1.000000
    3        5.229047   0.998829
    4        5.229047   0.998829
    5        7.837833   0.000000
    6        7.970321   0.000000
    7        7.970321   0.000000
    8        8.556675   0.000000
 
  0.1875000E+00  0.6250000E-01  0.6250000E-01  0.1171875E-01
    1       -5.990119   1.000000
    2        3.283810   1.000000
    3        4.454051   1.000000
    4        5.112427   0.999945
    5        7.853730   0.000000
    6        8.209053   0.000000
    7        8.472240   0.000000
    8       10.080900   0.000000
 
  0.3125000E+00  0.6250000E-01  0.6250000E-01  0.1171875E-01
    1       -5.365841   1.000000
    2        1.123230   1.000000
    3        3.975637   1.000000
    4        4.664939   1.000000
    5        7.400841   0.000000
    6        8.700323   0.000000
    7        8.975798   0.000000
    8       11.692401   0.000000
 
  0.4375000E+00  0.6250000E-01  0.6250000E-01  0.1171875E-01
    1       -4.499818   1.000000
    2       -0.698879   1.000000
    3        3.760791   1.000000
    4        4.271091   1.000000
    5        7.088163   0.000000
    6        8.784131   0.000000
    7        8.797813   0.000000
    8       12.995182   0.000000
 
 -0.4375000E+00  0.6250000E-01  0.6250000E-01  0.1171875E-01
    1       -4.074899   1.000000
    2       -1.368738   1.000000
    3        3.805382   1.000000
    4        4.061478   1.000000
    5        7.009949   0.000000
    6        8.601740   0.000000
    7        8.863298   0.000000
    8       13.097928   0.000000
 
 -0.3125000E+00  0.6250000E-01  0.6250000E-01  0.1171875E-01
    1       -4.795377   1.000000
    2       -0.161603   1.000000
    3        4.082187   1.000000
    4        4.084356   1.000000
    5        7.178067   0.000000
    6        8.595288   0.000000
    7        9.101639   0.000000
    8       12.135573   0.000000
 
 -0.1875000E+00  0.6250000E-01  0.6250000E-01  0.1171875E-01
    1       -5.610365   1.000000
    2        1.830988   1.000000
    3        4.354605   1.000000
    4        4.533591   1.000000
    5        7.543171   0.000000
    6        8.422290   0.000000
    7        9.131261   0.000000
    8       10.927064   0.000000
 
 -0.6250000E-01  0.6250000E-01  0.6250000E-01  0.1171875E-01
    1       -6.118960   1.000000
    2        4.020527   1.000000
    3        4.821271   1.000000
    4        4.964938   1.000000
    5        7.689184   0.000000
    6        8.177999   0.000000
    7        8.527379   0.000000
    8        9.330855   0.000000
 
  0.1875000E+00  0.1875000E+00  0.6250000E-01  0.1171875E-01
    1       -5.859679   1.000000
    2        3.125778   1.000000
    3        4.284560   1.000000
    4        4.354219   1.000000
    5        7.285305   0.000000
    6        8.899236   0.000000
    7        9.357682   0.000000
    8        9.813970   0.000000
 
  0.3125000E+00  0.1875000E+00  0.6250000E-01  0.2343750E-01
    1       -5.353122   1.000000
    2        1.661005   1.000000
    3        3.346407   1.000000
    4        4.105478   1.000000
    5        7.447275   0.000000
    6        9.003248   0.000000
    7        9.756518   0.000000
    8       10.134705   0.000000
 
  0.4375000E+00  0.1875000E+00  0.6250000E-01  0.2343750E-01
    1       -4.539826   1.000000
    2       -0.127777   1.000000
    3        2.853311   1.000000
    4        3.713822   1.000000
    5        7.623575   0.000000
    6        8.995476   0.000000
    7       10.162843   0.000000
    8       10.470605   0.000000
 
 -0.4375000E+00  0.1875000E+00  0.6250000E-01  0.2343750E-01
    1       -3.814567   1.000000
    2       -1.284596   1.000000
    3        2.569446   1.000000
    4        3.625491   1.000000
    5        7.673814   0.000000
    6        8.733449   0.000000
    7       10.028306   0.000000
    8       12.414081   0.000000
 
 -0.3125000E+00  0.1875000E+00  0.6250000E-01  0.2343750E-01
    1       -4.249402   1.000000
    2       -0.625984   1.000000
    3        2.504823   1.000000
    4        3.897680   1.000000
    5        7.920346   0.000000
    6        8.670001   0.000000
    7        9.968310   0.000000
    8       11.691459   0.000000
 
 -0.1875000E+00  0.1875000E+00  0.6250000E-01  0.2343750E-01
    1       -5.114268   1.000000
    2        1.034466   1.000000
    3        2.810830   1.000000
    4        4.384438   1.000000
    5        8.233362   0.000000
    6        8.557952   0.000000
    7        9.840721   0.000000
    8       10.337921   0.000000
 
 -0.6250000E-01  0.1875000E+00  0.6250000E-01  0.2343750E-01
    1       -5.733837   1.000000
    2        2.478319   1.000000
    3        3.897356   1.000000
    4        4.742805   1.000000
    5        7.818278   0.000000
    6        8.397593   0.000000
    7        9.177060   0.000000
    8       10.351998   0.000000
 
  0.3125000E+00  0.3125000E+00  0.6250000E-01  0.1171875E-01
    1       -4.965717   1.000000
    2        1.147588   1.000000
    3        3.210312   1.000000
    4        3.327726   1.000000
    5        6.504157   0.000000
    6        8.137441   0.000000
    7       11.150776   0.000000
    8       11.306310   0.000000
 
  0.4375000E+00  0.3125000E+00  0.6250000E-01  0.2343750E-01
    1       -4.240511   1.000000
    2       -0.052838   1.000000
    3        2.454496   1.000000
    4        2.994885   1.000000
    5        6.812222   0.000000
    6        7.980157   0.000000
    7       11.116715   0.000000
    8       12.268500   0.000000
 
 -0.4375000E+00  0.3125000E+00  0.6250000E-01  0.2343750E-01
    1       -3.380288   1.000000
    2       -1.202065   1.000000
    3        1.645586   1.000000
    4        2.963972   1.000000
    5        7.045812   0.000000
    6        9.594160   0.000000
    7       10.702833   0.000000
    8       12.181377   0.000000
 
 -0.3125000E+00  0.3125000E+00  0.6250000E-01  0.2343750E-01
    1       -3.451044   1.000000
    2       -1.109921   1.000000
    3        1.309786   1.000000
    4        3.294362   1.000000
    5        7.429238   0.000000
    6       10.286528   0.000000
    7       11.528437   0.000000
    8       11.889707   0.000000
 
 -0.1875000E+00  0.3125000E+00  0.6250000E-01  0.2343750E-01
    1       -4.310845   1.000000
    2       -0.178961   1.000000
    3        1.885407   1.000000
    4        3.855914   1.000000
    5        8.015678   0.000000
    6        9.209847   0.000000
    7       10.578740   0.000000
    8       10.887607   0.000000
 
 -0.6250000E-01  0.3125000E+00  0.6250000E-01  0.2343750E-01
    1       -5.005703   1.000000
    2        0.465628   1.000000
    3        3.446822   1.000000
    4        4.287689   1.000000
    5        7.680287   0.000000
    6        8.598855   0.000000
    7        9.438294   0.000000
    8       11.095017   0.000000
 
  0.4375000E+00  0.4375000E+00  0.6250000E-01  0.1171875E-01
    1       -3.608248   1.000000
    2       -0.892112   1.000000
    3        2.547474   1.000000
    4        2.753168   1.000000
    5        6.131002   0.000427
    6        6.835922   0.000000
    7       13.380242   0.000000
    8       13.409745   0.000000
 
 -0.4375000E+00  0.4375000E+00  0.6250000E-01  0.2343750E-01
    1       -2.731605   1.000000
    2       -1.850488   1.000000
    3        2.016336   1.000000
    4        2.521882   1.000000
    5        6.554297   0.000000
    6        7.260763   0.000000
    7       13.151471   0.000000
    8       14.106200   0.000000
 
 -0.3125000E+00  0.4375000E+00  0.6250000E-01  0.2343750E-01
    1       -2.833978   1.000000
    2       -1.684247   1.000000
    3        1.320176   1.000000
    4        2.825291   1.000000
    5        6.905111   0.000000
    6        9.438107   0.000000
    7       11.669337   0.000000
    8       12.766926   0.000000
 
 -0.1875000E+00  0.4375000E+00  0.6250000E-01  0.2343750E-01
    1       -3.566765   1.000000
    2       -1.256829   1.000000
    3        1.828144   1.000000
    4        3.403508   1.000000
    5        7.538990   0.000000
    6        9.449538   0.000000
    7       10.944630   0.000000
    8       12.172280   0.000000
 
 -0.6250000E-01  0.4375000E+00  0.6250000E-01  0.2343750E-01
    1       -4.152579   1.000000
    2       -1.089484   1.000000
    3        3.270357   1.000000
    4        3.966075   1.000000
    5        7.470706   0.000000
    6        8.536389   0.000000
    7        9.276518   0.000000
    8       12.735590   0.000000
 
 -0.4375000E+00 -0.4375000E+00  0.6250000E-01  0.1171875E-01
    1       -2.778999   1.000000
    2       -1.865906   1.000000
    3        2.414436   1.000000
    4        2.635708   1.000000
    5        6.134000   0.000395
    6        6.484785   0.000000
    7       14.427604   0.000000
    8       14.479130   0.000000
 
 -0.3125000E+00 -0.4375000E+00  0.6250000E-01  0.2343750E-01
    1       -3.527131   1.000000
    2       -0.954519   1.000000
    3        2.166339   1.000000
    4        2.676475   1.000000
    5        6.634610   0.000000
    6        7.509274   0.000000
    7       12.108423   0.000000
    8       13.390223   0.000000
 
 -0.1875000E+00 -0.4375000E+00  0.6250000E-01  0.2343750E-01
    1       -3.986009   1.000000
    2       -0.673222   1.000000
    3        2.209439   1.000000
    4        3.253103   1.000000
    5        7.308403   0.000000
    6        9.771020   0.000000
    7        9.936257   0.000000
    8       11.155247   0.000000
 
 -0.3125000E+00 -0.3125000E+00  0.6250000E-01  0.1171875E-01
    1       -4.341037   1.000000
    2        0.121326   1.000000
    3        2.813200   1.000000
    4        2.985675   1.000000
    5        6.252936   0.000014
    6        7.399892   0.000000
    7       12.249093   0.000000
    8       12.344902   0.000000
 
 -0.1875000E+00 -0.3125000E+00  0.6250000E-01  0.2343750E-01
    1       -4.852873   1.000000
    2        0.821867   1.000000
    3        2.856626   1.000000
    4        3.482739   1.000000
    5        7.089828   0.000000
    6        8.627260   0.000000
    7       10.199500   0.000000
    8       11.172048   0.000000
 
 -0.1875000E+00 -0.1875000E+00  0.6250000E-01  0.1171875E-01
    1       -5.473917   1.000000
    2        2.158452   1.000000
    3        3.732885   1.000000
    4        3.768322   1.000000
    5        6.862504   0.000000
    6        8.932809   0.000000
    7       10.147821   0.000000
    8       10.303879   0.000000
 
  0.1875000E+00  0.1875000E+00  0.1875000E+00  0.3906250E-02
    1       -5.862958   1.000000
    2        2.584621   1.000000
    3        4.803073   1.000000
    4        4.803073   1.000000
    5        7.401734   0.000000
    6        8.569963   0.000000
    7        8.569963   0.000000
    8       10.705182   0.000000
 
  0.3125000E+00  0.1875000E+00  0.1875000E+00  0.1171875E-01
    1       -5.484032   1.000000
    2        1.749672   1.000000
    3        3.344801   1.000000
    4        4.816107   1.000000
    5        8.054253   0.000000
    6        8.692729   0.000000
    7        8.966546   0.000000
    8       10.872255   0.000000
 
  0.4375000E+00  0.1875000E+00  0.1875000E+00  0.1171875E-01
    1       -4.763356   1.000000
    2        0.410507   1.000000
    3        2.301322   1.000000
    4        4.329598   1.000000
    5        7.951819   0.000000
    6        9.431191   0.000000
    7        9.614902   0.000000
    8       11.157984   0.000000
 
 -0.4375000E+00  0.1875000E+00  0.1875000E+00  0.1171875E-01
    1       -3.906343   1.000000
    2       -1.017416   1.000000
    3        2.141060   1.000000
    4        3.818277   1.000000
    5        7.492391   0.000000
    6        9.574691   0.000000
    7        9.831483   0.000000
    8       12.988097   0.000000
 
 -0.3125000E+00  0.1875000E+00  0.1875000E+00  0.1171875E-01
    1       -3.890874   1.000000
    2       -1.045128   1.000000
    3        2.426200   1.000000
    4        3.512883   1.000000
    5        7.237222   0.000000
    6        9.632609   0.000000
    7       10.168968   0.000000
    8       11.113206   0.000000
 
 -0.1875000E+00  0.1875000E+00  0.1875000E+00  0.1171875E-01
    1       -4.746297   1.000000
    2        0.407396   1.000000
    3        3.020915   1.000000
    4        3.491958   1.000000
    5        7.175296   0.000000
    6        9.294913   0.000000
    7        9.924782   0.000000
    8       10.516319   0.000000
 
  0.3125000E+00  0.3125000E+00  0.1875000E+00  0.1171875E-01
    1       -5.236021   1.000000
    2        1.107097   1.000000
    3        3.815125   1.000000
    4        3.896349   1.000000
    5        7.535769   0.000000
    6        8.823896   0.000000
    7        9.788090   0.000000
    8       10.187824   0.000000
 
  0.4375000E+00  0.3125000E+00  0.1875000E+00  0.2343750E-01
    1       -4.631427   1.000000
    2        0.337501   1.000000
    3        2.356460   1.000000
    4        3.705659   1.000000
    5        8.031407   0.000000
    6        9.007189   0.000000
    7        9.557942   0.000000
    8       11.001304   0.000000
 
 -0.4375000E+00  0.3125000E+00  0.1875000E+00  0.2343750E-01
    1       -3.774118   1.000000
    2       -0.737805   1.000000
    3        1.598521   1.000000
    4        3.162902   1.000000
    5        8.473739   0.000000
    6        8.951207   0.000000
    7       10.195517   0.000000
    8       12.070174   0.000000
 
 -0.3125000E+00  0.3125000E+00  0.1875000E+00  0.2343750E-01
    1       -3.308447   1.000000
    2       -1.324180   1.000000
    3        1.595904   1.000000
    4        2.863951   1.000000
    5        8.024038   0.000000
    6        9.270026   0.000000
    7       10.958979   0.000000
    8       12.184016   0.000000
 
 -0.1875000E+00  0.3125000E+00  0.1875000E+00  0.2343750E-01
    1       -4.046373   1.000000
    2       -0.362712   1.000000
    3        2.007968   1.000000
    4        3.035025   1.000000
    5        7.760639   0.000000
    6        8.959668   0.000000
    7        9.762387   0.000000
    8       12.186575   0.000000
 
  0.4375000E+00  0.4375000E+00  0.1875000E+00  0.1171875E-01
    1       -4.151549   1.000000
    2       -0.301751   1.000000
    3        2.325505   1.000000
    4        3.172022   1.000000
    5        6.814565   0.000000
    6        8.795189   0.000000
    7       10.943172   0.000000
    8       11.319801   0.000000
 
 -0.4375000E+00  0.4375000E+00  0.1875000E+00  0.2343750E-01
    1       -3.376542   1.000000
    2       -1.089447   1.000000
    3        1.777506   1.000000
    4        2.520597   1.000000
    5        7.566735   0.000000
    6        8.560958   0.000000
    7       10.636493   0.000000
    8       13.351559   0.000000
 
 -0.3125000E+00  0.4375000E+00  0.1875000E+00  0.2343750E-01
    1       -2.600522   1.000000
    2       -1.824413   1.000000
    3        1.476750   1.000000
    4        2.040889   1.000000
    5        8.663688   0.000000
    6        9.584840   0.000000
    7       10.189743   0.000000
    8       11.184743   0.000000
 
 -0.1875000E+00  0.4375000E+00  0.1875000E+00  0.2343750E-01
    1       -3.182084   1.000000
    2       -1.287125   1.000000
    3        1.464355   1.000000
    4        2.497316   1.000000
    5        8.759417   0.000000
    6        9.165342   0.000000
    7        9.891714   0.000000
    8       12.321043   0.000000
 
 -0.4375000E+00 -0.4375000E+00  0.1875000E+00  0.1171875E-01
    1       -2.755461   1.000000
    2       -1.799333   1.000000
    3        1.576177   1.000000
    4        2.840583   1.000000
    5        6.401620   0.000000
    6        8.247845   0.000000
    7       13.080310   0.000000
    8       13.238549   0.000000
 
 -0.3125000E+00 -0.4375000E+00  0.1875000E+00  0.2343750E-01
    1       -2.658219   1.000000
    2       -1.832752   1.000000
    3        1.666384   1.000000
    4        2.244017   1.000000
    5        7.467621   0.000000
    6        8.360159   0.000000
    7       11.618010   0.000000
    8       12.701435   0.000000
 
 -0.3125000E+00 -0.3125000E+00  0.1875000E+00  0.1171875E-01
    1       -3.470063   1.000000
    2       -1.049145   1.000000
    3        1.828617   1.000000
    4        2.952203   1.000000
    5        6.544310   0.000000
    6        8.429340   0.000000
    7       12.074783   0.000000
    8       12.200330   0.000000
 
  0.3125000E+00  0.3125000E+00  0.3125000E+00  0.3906250E-02
    1       -5.133293   1.000000
    2        0.444046   1.000000
    3        4.400868   1.000000
    4        4.400868   1.000000
    5        6.948912   0.000000
    6        8.817556   0.000000
    7        8.817556   0.000000
    8       12.746317   0.000000
 
  0.4375000E+00  0.3125000E+00  0.3125000E+00  0.1171875E-01
    1       -4.671095   1.000000
    2       -0.124582   1.000000
    3        2.978125   1.000000
    4        4.314772   1.000000
    5        7.683364   0.000000
    6        9.030176   0.000000
    7        9.082906   0.000000
    8       12.163794   0.000000
 
 -0.4375000E+00  0.3125000E+00  0.3125000E+00  0.1171875E-01
    1       -3.908052   1.000000
    2       -0.668260   1.000000
    3        1.520682   1.000000
    4        3.756968   1.000000
    5        7.431824   0.000000
    6       10.427604   0.000000
    7       10.571943   0.000000
    8       11.903274   0.000000
 
 -0.3125000E+00  0.3125000E+00  0.3125000E+00  0.1171875E-01
    1       -3.119318   1.000000
    2       -1.434134   1.000000
    3        1.202309   1.000000
    4        3.230320   1.000000
    5        6.849061   0.000000
    6       10.655098   0.000000
    7       11.663989   0.000000
    8       11.867717   0.000000
 
  0.4375000E+00  0.4375000E+00  0.3125000E+00  0.1171875E-01
    1       -4.369680   1.000000
    2       -0.662271   1.000000
    3        3.294415   1.000000
    4        3.774255   1.000000
    5        7.438970   0.000000
    6        8.784259   0.000000
    7        9.557569   0.000000
    8       11.540258   0.000000
 
 -0.4375000E+00  0.4375000E+00  0.3125000E+00  0.2343750E-01
    1       -3.773418   1.000000
    2       -1.026615   1.000000
    3        2.039427   1.000000
    4        3.320878   1.000000
    5        8.212093   0.000000
    6        8.584909   0.000000
    7       11.014093   0.000000
    8       11.303240   0.000000
 
 -0.3125000E+00  0.4375000E+00  0.3125000E+00  0.2343750E-01
    1       -2.985037   1.000000
    2       -1.503256   1.000000
    3        1.291318   1.000000
    4        2.636472   1.000000
    5        7.902319   0.000000
    6       10.099478   0.000000
    7       10.846081   0.000000
    8       11.348467   0.000000
 
 -0.4375000E+00 -0.4375000E+00  0.3125000E+00  0.1171875E-01
    1       -3.429436   1.000000
    2       -1.303647   1.000000
    3        1.668961   1.000000
    4        3.326679   1.000000
    5        6.989658   0.000000
    6       10.611531   0.000000
    7       10.908929   0.000000
    8       10.920671   0.000000
 
  0.4375000E+00  0.4375000E+00  0.4375000E+00  0.3906250E-02
    1       -4.281750   1.000000
    2       -1.142471   1.000000
    3        4.184811   1.000000
    4        4.184811   1.000000
    5        6.697072   0.000000
    6        8.698662   0.000000
    7        8.698662   0.000000
    8       13.002705   0.000000
 
 -0.4375000E+00  0.4375000E+00  0.4375000E+00  0.1171875E-01
    1       -3.945583   1.000000
    2       -1.317024   1.000000
    3        2.990420   1.000000
    4        3.928213   1.000000
    5        7.449607   0.000000
    6        8.797948   0.000000
    7        9.258951   0.000000
    8       13.326179   0.000000
