<?xml version="1.0" encoding="ISO-8859-1"?>
<modeling>
 <generator>
  <i name="program" type="string">vasp </i>
  <i name="version" type="string">5.4.4.18Apr17-6-g9f103f2a35  </i>
  <i name="subversion" type="string">(build Dec 09 2018 21:25:21) complex            parallel </i>
  <i name="platform" type="string">IFC18.0.1.163_CrayMPICH7.7.0_MKL18.0.1.163 </i>
  <i name="date" type="string">2019 03 23 </i>
  <i name="time" type="string">21:24:30 </i>
 </generator>
 <incar>
  <i type="string" name="PREC">normal</i>
  <i type="int" name="IBRION">     2</i>
  <i name="EDIFF">      0.00040000</i>
  <i name="EDIFFG">     -0.01000000</i>
  <i type="int" name="NSW">    15</i>
  <i type="int" name="ISIF">     2</i>
  <i name="ENCUT">    350.00000000</i>
  <i type="int" name="NBANDS">     8</i>
  <i type="logical" name="LREAL"> F  </i>
  <i type="int" name="ISMEAR">     0</i>
  <i name="SIGMA">      0.20000000</i>
  <v type="int" name="KPOINT_BSE">    -1     0     0     0</v>
 </incar>
 <structure name="primitive_cell" >
  <crystal>
   <varray name="basis" >
    <v>       0.00000000       2.76307500       2.76307500 </v>
    <v>       2.76307500       0.00000000       2.76307500 </v>
    <v>       2.76307500       2.76307500       0.00000000 </v>
   </varray>
   <i name="volume">     42.18985336 </i>
   <varray name="rec_basis" >
    <v>      -0.18095781       0.18095781       0.18095781 </v>
    <v>       0.18095781      -0.18095781       0.18095781 </v>
    <v>       0.18095781       0.18095781      -0.18095781 </v>
   </varray>
  </crystal>
  <varray name="positions" >
   <v>      -0.50000000      -0.50000000      -0.50000000 </v>
   <v>      -0.25000000      -0.25000000      -0.25000000 </v>
  </varray>
 </structure>
 <varray name="primitive_index" >
  <v type="int" >        1 </v>
  <v type="int" >        2 </v>
 </varray>
 <kpoints>
  <generation param="Monkhorst-Pack">
   <v type="int" name="divisions">       8        8        8 </v>
   <v name="usershift">      0.00000000       0.00000000       0.00000000 </v>
   <v name="genvec1">      0.12500000       0.00000000      -0.00000000 </v>
   <v name="genvec2">      0.00000000       0.12500000       0.00000000 </v>
   <v name="genvec3">     -0.00000000      -0.00000000       0.12500000 </v>
   <v name="shift">      0.50000000       0.50000000       0.50000000 </v>
  </generation>
  <varray name="kpointlist" >
   <v>       0.06250000       0.06250000       0.06250000 </v>
   <v>       0.18750000       0.06250000       0.06250000 </v>
   <v>       0.31250000       0.06250000       0.06250000 </v>
   <v>       0.43750000       0.06250000       0.06250000 </v>
   <v>      -0.43750000       0.06250000       0.06250000 </v>
   <v>      -0.31250000       0.06250000       0.06250000 </v>
   <v>      -0.18750000       0.06250000       0.06250000 </v>
   <v>      -0.06250000       0.06250000       0.06250000 </v>
   <v>       0.18750000       0.18750000       0.06250000 </v>
   <v>       0.31250000       0.18750000       0.06250000 </v>
   <v>       0.43750000       0.18750000       0.06250000 </v>
   <v>      -0.43750000       0.18750000       0.06250000 </v>
   <v>      -0.31250000       0.18750000       0.06250000 </v>
   <v>      -0.18750000       0.18750000       0.06250000 </v>
   <v>      -0.06250000       0.18750000       0.06250000 </v>
   <v>       0.31250000       0.31250000       0.06250000 </v>
   <v>       0.43750000       0.31250000       0.06250000 </v>
   <v>      -0.43750000       0.31250000       0.06250000 </v>
   <v>      -0.31250000       0.31250000       0.06250000 </v>
   <v>      -0.18750000       0.31250000       0.06250000 </v>
   <v>      -0.06250000       0.31250000       0.06250000 </v>
   <v>       0.43750000       0.43750000       0.06250000 </v>
   <v>      -0.43750000       0.43750000       0.06250000 </v>
   <v>      -0.31250000       0.43750000       0.06250000 </v>
   <v>      -0.18750000       0.43750000       0.06250000 </v>
   <v>      -0.06250000       0.43750000       0.06250000 </v>
   <v>      -0.43750000      -0.43750000       0.06250000 </v>
   <v>      -0.31250000      -0.43750000       0.06250000 </v>
   <v>      -0.18750000      -0.43750000       0.06250000 </v>
   <v>      -0.31250000      -0.31250000       0.06250000 </v>
   <v>      -0.18750000      -0.31250000       0.06250000 </v>
   <v>      -0.18750000      -0.18750000       0.06250000 </v>
   <v>       0.18750000       0.18750000       0.18750000 </v>
   <v>       0.31250000       0.18750000       0.18750000 </v>
   <v>       0.43750000       0.18750000       0.18750000 </v>
   <v>      -0.43750000       0.18750000       0.18750000 </v>
   <v>      -0.31250000       0.18750000       0.18750000 </v>
   <v>      -0.18750000       0.18750000       0.18750000 </v>
   <v>       0.31250000       0.31250000       0.18750000 </v>
   <v>       0.43750000       0.31250000       0.18750000 </v>
   <v>      -0.43750000       0.31250000       0.18750000 </v>
   <v>      -0.31250000       0.31250000       0.18750000 </v>
   <v>      -0.18750000       0.31250000       0.18750000 </v>
   <v>       0.43750000       0.43750000       0.18750000 </v>
   <v>      -0.43750000       0.43750000       0.18750000 </v>
   <v>      -0.31250000       0.43750000       0.18750000 </v>
   <v>      -0.18750000       0.43750000       0.18750000 </v>
   <v>      -0.43750000      -0.43750000       0.18750000 </v>
   <v>      -0.31250000      -0.43750000       0.18750000 </v>
   <v>      -0.31250000      -0.31250000       0.18750000 </v>
   <v>       0.31250000       0.31250000       0.31250000 </v>
   <v>       0.43750000       0.31250000       0.31250000 </v>
   <v>      -0.43750000       0.31250000       0.31250000 </v>
   <v>      -0.31250000       0.31250000       0.31250000 </v>
   <v>       0.43750000       0.43750000       0.31250000 </v>
   <v>      -0.43750000       0.43750000       0.31250000 </v>
   <v>      -0.31250000       0.43750000       0.31250000 </v>
   <v>      -0.43750000      -0.43750000       0.31250000 </v>
   <v>       0.43750000       0.43750000       0.43750000 </v>
   <v>      -0.43750000       0.43750000       0.43750000 </v>
  </varray>
  <varray name="weights" >
   <v>       0.00390625 </v>
   <v>       0.01171875 </v>
   <v>       0.01171875 </v>
   <v>       0.01171875 </v>
   <v>       0.01171875 </v>
   <v>       0.01171875 </v>
   <v>       0.01171875 </v>
   <v>       0.01171875 </v>
   <v>       0.01171875 </v>
   <v>       0.02343750 </v>
   <v>       0.02343750 </v>
   <v>       0.02343750 </v>
   <v>       0.02343750 </v>
   <v>       0.02343750 </v>
   <v>       0.02343750 </v>
   <v>       0.01171875 </v>
   <v>       0.02343750 </v>
   <v>       0.02343750 </v>
   <v>       0.02343750 </v>
   <v>       0.02343750 </v>
   <v>       0.02343750 </v>
   <v>       0.01171875 </v>
   <v>       0.02343750 </v>
   <v>       0.02343750 </v>
   <v>       0.02343750 </v>
   <v>       0.02343750 </v>
   <v>       0.01171875 </v>
   <v>       0.02343750 </v>
   <v>       0.02343750 </v>
   <v>       0.01171875 </v>
   <v>       0.02343750 </v>
   <v>       0.01171875 </v>
   <v>       0.00390625 </v>
   <v>       0.01171875 </v>
   <v>       0.01171875 </v>
   <v>       0.01171875 </v>
   <v>       0.01171875 </v>
   <v>       0.01171875 </v>
   <v>       0.01171875 </v>
   <v>       0.02343750 </v>
   <v>       0.02343750 </v>
   <v>       0.02343750 </v>
   <v>       0.02343750 </v>
   <v>       0.01171875 </v>
   <v>       0.02343750 </v>
   <v>       0.02343750 </v>
   <v>       0.02343750 </v>
   <v>       0.01171875 </v>
   <v>       0.02343750 </v>
   <v>       0.01171875 </v>
   <v>       0.00390625 </v>
   <v>       0.01171875 </v>
   <v>       0.01171875 </v>
   <v>       0.01171875 </v>
   <v>       0.01171875 </v>
   <v>       0.02343750 </v>
   <v>       0.02343750 </v>
   <v>       0.01171875 </v>
   <v>       0.00390625 </v>
   <v>       0.01171875 </v>
  </varray>
 </kpoints>
 <parameters>
  <separator name="general" >
   <i type="string" name="SYSTEM">unknown system</i>
   <i type="logical" name="LCOMPAT"> F  </i>
  </separator>
  <separator name="electronic" >
   <i type="string" name="PREC">normal</i>
   <i name="ENMAX">    350.00000000</i>
   <i name="ENAUG">    322.06900000</i>
   <i name="EDIFF">      0.00040000</i>
   <i type="int" name="IALGO">    38</i>
   <i type="int" name="IWAVPR">    11</i>
   <i type="int" name="NBANDS">     8</i>
   <i name="NELECT">      8.00000000</i>
   <i type="int" name="TURBO">     0</i>
   <i type="int" name="IRESTART">     0</i>
   <i type="int" name="NREBOOT">     0</i>
   <i type="int" name="NMIN">     0</i>
   <i name="EREF">      0.00000000</i>
   <separator name="electronic smearing" >
    <i type="int" name="ISMEAR">     0</i>
    <i name="SIGMA">      0.20000000</i>
    <i name="KSPACING">      0.50000000</i>
    <i type="logical" name="KGAMMA"> T  </i>
   </separator>
   <separator name="electronic projectors" >
    <i type="logical" name="LREAL"> F  </i>
    <v name="ROPT">      0.00000000</v>
    <i type="int" name="LMAXPAW">  -100</i>
    <i type="int" name="LMAXMIX">     2</i>
    <i type="logical" name="NLSPLINE"> F  </i>
   </separator>
   <separator name="electronic startup" >
    <i type="int" name="ISTART">     0</i>
    <i type="int" name="ICHARG">     2</i>
    <i type="int" name="INIWAV">     1</i>
   </separator>
   <separator name="electronic spin" >
    <i type="int" name="ISPIN">     1</i>
    <i type="logical" name="LNONCOLLINEAR"> F  </i>
    <v name="MAGMOM">      1.00000000      1.00000000</v>
    <i name="NUPDOWN">     -1.00000000</i>
    <i type="logical" name="LSORBIT"> F  </i>
    <v name="SAXIS">      0.00000000      0.00000000      1.00000000</v>
    <i type="logical" name="LSPIRAL"> F  </i>
    <v name="QSPIRAL">      0.00000000      0.00000000      0.00000000</v>
    <i type="logical" name="LZEROZ"> F  </i>
   </separator>
   <separator name="electronic exchange-correlation" >
    <i type="logical" name="LASPH"> F  </i>
    <i type="logical" name="LMETAGGA"> F  </i>
   </separator>
   <separator name="electronic convergence" >
    <i type="int" name="NELM">    60</i>
    <i type="int" name="NELMDL">    -5</i>
    <i type="int" name="NELMIN">     2</i>
    <i name="ENINI">    350.00000000</i>
    <separator name="electronic convergence detail" >
     <i type="logical" name="LDIAG"> T  </i>
     <i type="logical" name="LSUBROT"> F  </i>
     <i name="WEIMIN">      0.00100000</i>
     <i name="EBREAK">      0.00001250</i>
     <i name="DEPER">      0.30000000</i>
     <i type="int" name="NRMM">     4</i>
     <i name="TIME">      0.40000000</i>
    </separator>
   </separator>
   <separator name="electronic mixer" >
    <i name="AMIX">      0.40000000</i>
    <i name="BMIX">      1.00000000</i>
    <i name="AMIN">      0.10000000</i>
    <i name="AMIX_MAG">      1.60000000</i>
    <i name="BMIX_MAG">      1.00000000</i>
    <separator name="electronic mixer details" >
     <i type="int" name="IMIX">     4</i>
     <i type="logical" name="MIXFIRST"> F  </i>
     <i type="int" name="MAXMIX">   -45</i>
     <i name="WC">    100.00000000</i>
     <i type="int" name="INIMIX">     1</i>
     <i type="int" name="MIXPRE">     1</i>
     <i type="int" name="MREMOVE">     5</i>
    </separator>
   </separator>
   <separator name="electronic dipolcorrection" >
    <i type="logical" name="LDIPOL"> F  </i>
    <i type="logical" name="LMONO"> F  </i>
    <i type="int" name="IDIPOL">     0</i>
    <i name="EPSILON">      1.00000000</i>
    <v name="DIPOL">   -100.00000000   -100.00000000   -100.00000000</v>
    <i name="EFIELD">      0.00000000</i>
   </separator>
  </separator>
  <separator name="grids" >
   <i type="int" name="NGX">    18</i>
   <i type="int" name="NGY">    18</i>
   <i type="int" name="NGZ">    18</i>
   <i type="int" name="NGXF">    36</i>
   <i type="int" name="NGYF">    36</i>
   <i type="int" name="NGZF">    36</i>
   <i type="logical" name="ADDGRID"> F  </i>
  </separator>
  <separator name="ionic" >
   <i type="int" name="NSW">    15</i>
   <i type="int" name="IBRION">     2</i>
   <i type="int" name="MDALGO">     0</i>
   <i type="int" name="ISIF">     2</i>
   <i name="PSTRESS">      0.00000000</i>
   <i name="EDIFFG">     -0.01000000</i>
   <i type="int" name="NFREE">     1</i>
   <i name="POTIM">      0.50000000</i>
   <i name="SMASS">     -3.00000000</i>
   <i name="SCALEE">      1.00000000</i>
  </separator>
  <separator name="ionic md" >
   <i name="TEBEG">      0.00010000</i>
   <i name="TEEND">      0.00010000</i>
   <i type="int" name="NBLOCK">     1</i>
   <i type="int" name="KBLOCK">    15</i>
   <i type="int" name="NPACO">   256</i>
   <i name="APACO">     16.00000000</i>
  </separator>
  <separator name="symmetry" >
   <i type="int" name="ISYM">     2</i>
   <i name="SYMPREC">      0.00001000</i>
  </separator>
  <separator name="dos" >
   <i type="int" name="LORBIT">     0</i>
   <v name="RWIGS">     -1.00000000</v>
   <i type="int" name="NEDOS">   301</i>
   <i name="EMIN">     10.00000000</i>
   <i name="EMAX">    -10.00000000</i>
   <i name="EFERMI">      0.00000000</i>
  </separator>
  <separator name="writing" >
   <i type="int" name="NWRITE">     2</i>
   <i type="logical" name="LWAVE"> T  </i>
   <i type="logical" name="LDOWNSAMPLE"> F  </i>
   <i type="logical" name="LCHARG"> T  </i>
   <i type="logical" name="LPARD"> F  </i>
   <i type="logical" name="LVTOT"> F  </i>
   <i type="logical" name="LVHAR"> F  </i>
   <i type="logical" name="LELF"> F  </i>
   <i type="logical" name="LOPTICS"> F  </i>
   <v name="STM">      0.00000000      0.00000000      0.00000000      0.00000000      0.00000000      0.00000000      0.00000000</v>
  </separator>
  <separator name="performance" >
   <i type="int" name="NPAR">     8</i>
   <i type="int" name="NSIM">     4</i>
   <i type="int" name="NBLK">    -1</i>
   <i type="logical" name="LPLANE"> T  </i>
   <i type="logical" name="LSCALAPACK"> T  </i>
   <i type="logical" name="LSCAAWARE"> F  </i>
   <i type="logical" name="LSCALU"> F  </i>
   <i type="logical" name="LASYNC"> F  </i>
   <i type="logical" name="LORBITALREAL"> F  </i>
  </separator>
  <separator name="miscellaneous" >
   <i type="int" name="IDIOT">     3</i>
   <i type="int" name="ISPECIAL">     0</i>
   <i type="logical" name="LMUSIC"> F  </i>
   <v name="POMASS">     28.08500000</v>
   <v name="DARWINR">      0.00000000</v>
   <v name="DARWINV">      1.00000000</v>
   <i type="logical" name="LCORR"> T  </i>
  </separator>
  <i type="logical" name="GGA_COMPAT"> T  </i>
  <i type="logical" name="LBERRY"> F  </i>
  <i type="int" name="ICORELEVEL">     0</i>
  <i type="logical" name="LDAU"> F  </i>
  <i type="int" name="I_CONSTRAINED_M">     0</i>
  <separator name="electronic exchange-correlation" >
   <i type="string" name="GGA">--</i>
   <i type="int" name="VOSKOWN">     0</i>
   <i type="logical" name="LHFCALC"> F  </i>
   <i type="string" name="PRECFOCK"></i>
   <i type="logical" name="LSYMGRAD"> F  </i>
   <i type="logical" name="LHFONE"> F  </i>
   <i type="logical" name="LRHFCALC"> F  </i>
   <i type="logical" name="LTHOMAS"> F  </i>
   <i type="logical" name="LMODELHF"> F  </i>
   <i name="ENCUT4O">     -1.00000000</i>
   <i type="int" name="EXXOEP">     0</i>
   <i type="int" name="FOURORBIT">     0</i>
   <i name="AEXX">      0.00000000</i>
   <i name="HFALPHA">      0.00000000</i>
   <i name="MCALPHA">      0.00000000</i>
   <i name="ALDAX">      1.00000000</i>
   <i name="AGGAX">      1.00000000</i>
   <i name="ALDAC">      1.00000000</i>
   <i name="AGGAC">      1.00000000</i>
   <i type="int" name="NKREDX">     1</i>
   <i type="int" name="NKREDY">     1</i>
   <i type="int" name="NKREDZ">     1</i>
   <i type="logical" name="SHIFTRED"> F  </i>
   <i type="logical" name="ODDONLY"> F  </i>
   <i type="logical" name="EVENONLY"> F  </i>
   <i type="int" name="LMAXFOCK">     0</i>
   <i type="int" name="NMAXFOCKAE">     0</i>
   <i type="logical" name="LFOCKAEDFT"> F  </i>
   <i name="HFSCREEN">      0.00000000</i>
   <i name="HFSCREENC">      0.00000000</i>
   <i type="int" name="NBANDSGWLOW">     0</i>
  </separator>
  <separator name="vdW DFT" >
   <i type="logical" name="LUSE_VDW"> F  </i>
   <i name="Zab_VDW">     -0.84910000</i>
   <i name="PARAM1">      0.12340000</i>
   <i name="PARAM2">      1.00000000</i>
   <i name="PARAM3">      0.00000000</i>
  </separator>
  <separator name="model GW" >
   <i type="int" name="MODEL_GW">     0</i>
   <i name="MODEL_EPS0">     12.65695601</i>
   <i name="MODEL_ALPHA">      1.00000000</i>
  </separator>
  <separator name="linear response parameters" >
   <i type="logical" name="LEPSILON"> F  </i>
   <i type="logical" name="LRPA"> F  </i>
   <i type="logical" name="LNABLA"> F  </i>
   <i type="logical" name="LVEL"> F  </i>
   <i type="int" name="KINTER">     0</i>
   <i name="CSHIFT">      0.10000000</i>
   <i name="OMEGAMAX">     -1.00000000</i>
   <i name="DEG_THRESHOLD">      0.00200000</i>
   <i name="RTIME">     -0.10000000</i>
   <i name="WPLASMAI">      0.00000000</i>
   <v name="DFIELD">      0.00000000      0.00000000      0.00000000</v>
   <v name="WPLASMA">      0.00000000      0.00000000      0.00000000      0.00000000      0.00000000      0.00000000      0.00000000      0.00000000      0.00000000</v>
  </separator>
  <separator name="orbital magnetization" >
   <i type="logical" name="NUCIND"> F  </i>
   <v name="MAGPOS">      0.00000000      0.00000000      0.00000000</v>
   <i type="logical" name="LNICSALL"> T  </i>
   <i type="logical" name="ORBITALMAG"> F  </i>
   <i type="logical" name="LMAGBLOCH"> F  </i>
   <i type="logical" name="LCHIMAG"> F  </i>
   <i type="logical" name="LGAUGE"> T  </i>
   <i type="int" name="MAGATOM">     0</i>
   <v name="MAGDIPOL">      0.00000000      0.00000000      0.00000000</v>
   <v name="AVECCONST">      0.00000000      0.00000000      0.00000000</v>
  </separator>
  <separator name="response functions" >
   <i type="logical" name="LADDER"> F  </i>
   <i type="logical" name="LRPAFORCE"> F  </i>
   <i type="logical" name="LFXC"> F  </i>
   <i type="logical" name="LHARTREE"> T  </i>
   <i type="int" name="IBSE">     0</i>
   <v type="int" name="KPOINT">    -1     0     0     0</v>
   <i type="logical" name="LTCTE"> F  </i>
   <i type="logical" name="LTETE"> F  </i>
   <i type="logical" name="LTRIPLET"> F  </i>
   <i type="logical" name="LFXCEPS"> F  </i>
   <i type="logical" name="LFXHEG"> F  </i>
   <i type="int" name="NATURALO">     2</i>
   <i type="logical" name="L2ORDER"> F  </i>
   <i type="logical" name="LMP2LT"> F  </i>
   <i type="logical" name="LUSEW"> F  </i>
   <i name="ENCUTGW">     -2.00000000</i>
   <i name="ENCUTGWSOFT">     -2.00000000</i>
   <i name="ENCUTLF">     -1.00000000</i>
   <i type="int" name="LMAXMP2">    -1</i>
   <i name="SCISSOR">      0.00000000</i>
   <i type="int" name="NOMEGA">     0</i>
   <i type="int" name="NOMEGAR">     0</i>
   <i type="int" name="NBANDSGW">    -1</i>
   <i type="int" name="NBANDSO">    -1</i>
   <i type="int" name="NBANDSV">    -1</i>
   <i type="int" name="NELM">     1</i>
   <i type="int" name="NELMHF">     1</i>
   <i type="int" name="DIM">     3</i>
   <i type="int" name="ANTIRES">     0</i>
   <i name="OMEGAMAX">    -30.00000000</i>
   <i name="OMEGAMIN">    -30.00000000</i>
   <i name="OMEGATL">   -200.00000000</i>
   <i type="int" name="OMEGAGRID">   140</i>
   <i name="CSHIFT">     -0.10000000</i>
   <i type="logical" name="SELFENERGY"> F  </i>
   <i type="logical" name="LSPECTRAL"> F  </i>
   <i type="logical" name="LSPECTRALGW"> F  </i>
   <i type="logical" name="LSINGLES"> F  </i>
   <i type="logical" name="LFERMIGW"> F  </i>
   <i type="logical" name="ODDONLYGW"> F  </i>
   <i type="logical" name="EVENONLYGW"> F  </i>
   <i type="int" name="NKREDLFX">     1</i>
   <i type="int" name="NKREDLFY">     1</i>
   <i type="int" name="NKREDLFZ">     1</i>
   <i type="int" name="MAXMEM">  2800</i>
   <i type="int" name="TELESCOPE">     0</i>
   <i type="int" name="TAUPAR">     1</i>
   <i type="int" name="OMEGAPAR">    -1</i>
   <i name="LAMBDA">      1.00000000</i>
  </separator>
  <separator name="External order field" >
   <i name="OFIELD_KAPPA">      0.00000000</i>
   <v name="OFIELD_K">      0.00000000      0.00000000      0.00000000</v>
   <i name="OFIELD_Q6_NEAR">      0.00000000</i>
   <i name="OFIELD_Q6_FAR">      0.00000000</i>
   <i name="OFIELD_A">      0.00000000</i>
  </separator>
 </parameters>
 <atominfo>
  <atoms>       2 </atoms>
  <types>       1 </types>
  <array name="atoms" >
   <dimension dim="1">ion</dimension>
   <field type="string">element</field>
   <field type="int">atomtype</field>
   <set>
    <rc><c>Si</c><c>   1</c></rc>
    <rc><c>Si</c><c>   1</c></rc>
   </set>
  </array>
  <array name="atomtypes" >
   <dimension dim="1">type</dimension>
   <field type="int">atomspertype</field>
   <field type="string">element</field>
   <field>mass</field>
   <field>valence</field>
   <field type="string">pseudopotential</field>
   <set>
    <rc><c>   2</c><c>Si</c><c>     28.08500000</c><c>      4.00000000</c><c> PAW_PBE Si 05Jan2001                   </c></rc>
   </set>
  </array>
 </atominfo>
 <structure name="initialpos" >
  <crystal>
   <varray name="basis" >
    <v>       0.00000000       2.76307500       2.76307500 </v>
    <v>       2.76307500       0.00000000       2.76307500 </v>
    <v>       2.76307500       2.76307500       0.00000000 </v>
   </varray>
   <i name="volume">     42.18985336 </i>
   <varray name="rec_basis" >
    <v>      -0.18095781       0.18095781       0.18095781 </v>
    <v>       0.18095781      -0.18095781       0.18095781 </v>
    <v>       0.18095781       0.18095781      -0.18095781 </v>
   </varray>
  </crystal>
  <varray name="positions" >
   <v>       0.50000000       0.50000000       0.50000000 </v>
   <v>       0.75000000       0.75000000       0.75000000 </v>
  </varray>
 </structure>
 <calculation>
  <scstep>
   <time name="dav">    0.80    0.81</time>
   <time name="total">    0.85    0.87</time>
   <energy>
    <i name="alphaZ">      3.19158051 </i>
    <i name="ewald">   -224.58672681 </i>
    <i name="hartreedc">    -11.80553667 </i>
    <i name="XCdc">    -18.80560695 </i>
    <i name="pawpsdc">     65.95520812 </i>
    <i name="pawaedc">    -30.76852678 </i>
    <i name="eentropy">     -0.01373348 </i>
    <i name="bandstr">     15.03844175 </i>
    <i name="atom">    206.13125414 </i>
    <i name="e_fr_energy">      4.33635382 </i>
    <i name="e_wo_entrp">      4.35008730 </i>
    <i name="e_0_energy">      4.34322056 </i>
   </energy>
  </scstep>
  <scstep>
   <time name="dav">    1.24    1.24</time>
   <time name="total">    1.24    1.24</time>
   <energy>
    <i name="e_fr_energy">    -10.80425607 </i>
    <i name="e_wo_entrp">    -10.80425452 </i>
    <i name="e_0_energy">    -10.80425529 </i>
   </energy>
  </scstep>
  <scstep>
   <time name="dav">    0.98    0.99</time>
   <time name="total">    0.98    0.99</time>
   <energy>
    <i name="e_fr_energy">    -10.98730205 </i>
    <i name="e_wo_entrp">    -10.98730144 </i>
    <i name="e_0_energy">    -10.98730174 </i>
   </energy>
  </scstep>
  <scstep>
   <time name="dav">    1.28    1.28</time>
   <time name="total">    1.28    1.28</time>
   <energy>
    <i name="e_fr_energy">    -10.98808317 </i>
    <i name="e_wo_entrp">    -10.98808256 </i>
    <i name="e_0_energy">    -10.98808287 </i>
   </energy>
  </scstep>
  <scstep>
   <time name="dav">    1.00    1.01</time>
   <time name="total">    1.07    1.08</time>
   <energy>
    <i name="e_fr_energy">    -10.98808390 </i>
    <i name="e_wo_entrp">    -10.98808329 </i>
    <i name="e_0_energy">    -10.98808359 </i>
   </energy>
  </scstep>
  <scstep>
   <time name="dav">    0.94    0.94</time>
   <time name="total">    1.04    1.04</time>
   <energy>
    <i name="e_fr_energy">    -10.88465276 </i>
    <i name="e_wo_entrp">    -10.88464932 </i>
    <i name="e_0_energy">    -10.88465104 </i>
   </energy>
  </scstep>
  <scstep>
   <time name="dav">    0.98    0.98</time>
   <time name="total">    1.08    1.08</time>
   <energy>
    <i name="e_fr_energy">    -10.83556145 </i>
    <i name="e_wo_entrp">    -10.83553610 </i>
    <i name="e_0_energy">    -10.83554878 </i>
   </energy>
  </scstep>
  <scstep>
   <time name="dav">    0.88    0.88</time>
   <time name="total">    0.98    0.99</time>
   <energy>
    <i name="e_fr_energy">    -10.83689155 </i>
    <i name="e_wo_entrp">    -10.83687193 </i>
    <i name="e_0_energy">    -10.83688174 </i>
   </energy>
  </scstep>
  <scstep>
   <time name="dav">    0.71    0.71</time>
   <time name="total">    0.76    0.76</time>
   <energy>
    <i name="alphaZ">      3.19158051 </i>
    <i name="ewald">   -224.58672681 </i>
    <i name="hartreedc">    -15.53769515 </i>
    <i name="XCdc">    -18.20023965 </i>
    <i name="pawpsdc">     72.73050820 </i>
    <i name="pawaedc">    -37.72340067 </i>
    <i name="eentropy">     -0.00001938 </i>
    <i name="bandstr">      3.15774136 </i>
    <i name="atom">    206.13125414 </i>
    <i name="e_fr_energy">    -10.83699745 </i>
    <i name="e_wo_entrp">    -10.83697807 </i>
    <i name="e_0_energy">    -10.83698776 </i>
   </energy>
  </scstep>
  <structure>
   <crystal>
    <varray name="basis" >
     <v>       0.00000000       2.76307500       2.76307500 </v>
     <v>       2.76307500       0.00000000       2.76307500 </v>
     <v>       2.76307500       2.76307500       0.00000000 </v>
    </varray>
    <i name="volume">     42.18985336 </i>
    <varray name="rec_basis" >
     <v>      -0.18095781       0.18095781       0.18095781 </v>
     <v>       0.18095781      -0.18095781       0.18095781 </v>
     <v>       0.18095781       0.18095781      -0.18095781 </v>
    </varray>
   </crystal>
   <varray name="positions" >
    <v>       0.50000000       0.50000000       0.50000000 </v>
    <v>       0.75000000       0.75000000       0.75000000 </v>
   </varray>
  </structure>
  <varray name="forces" >
   <v>       0.00000000       0.00000000       0.00000000 </v>
   <v>      -0.00000000      -0.00000000      -0.00000000 </v>
  </varray>
  <varray name="stress" >
   <v>     -26.23296381      -0.00000000       0.00000000 </v>
   <v>      -0.00000000     -26.23296381       0.00000000 </v>
   <v>       0.00000000       0.00000000     -26.23296381 </v>
  </varray>
  <energy>
   <i name="e_fr_energy">    -10.83699745 </i>
   <i name="e_wo_entrp">    -10.83698776 </i>
   <i name="e_0_energy">     -0.00001938 </i>
  </energy>
  <time name="totalsc">   10.93   11.72</time>
  <eigenvalues>
   <array>
    <dimension dim="1">band</dimension>
    <dimension dim="2">kpoint</dimension>
    <dimension dim="3">spin</dimension>
    <field>eigene</field>
    <field>occ</field>
    <set>
     <set comment="spin 1">
      <set comment="kpoint 1">
       <r>   -6.2492    1.0000 </r>
       <r>    4.7727    1.0000 </r>
       <r>    5.2290    0.9988 </r>
       <r>    5.2290    0.9988 </r>
       <r>    7.8378    0.0000 </r>
       <r>    7.9703    0.0000 </r>
       <r>    7.9703    0.0000 </r>
       <r>    8.5567    0.0000 </r>
      </set>
      <set comment="kpoint 2">
       <r>   -5.9901    1.0000 </r>
       <r>    3.2838    1.0000 </r>
       <r>    4.4541    1.0000 </r>
       <r>    5.1124    0.9999 </r>
       <r>    7.8537    0.0000 </r>
       <r>    8.2091    0.0000 </r>
       <r>    8.4722    0.0000 </r>
       <r>   10.0809    0.0000 </r>
      </set>
      <set comment="kpoint 3">
       <r>   -5.3658    1.0000 </r>
       <r>    1.1232    1.0000 </r>
       <r>    3.9756    1.0000 </r>
       <r>    4.6649    1.0000 </r>
       <r>    7.4008    0.0000 </r>
       <r>    8.7003    0.0000 </r>
       <r>    8.9758    0.0000 </r>
       <r>   11.6924    0.0000 </r>
      </set>
      <set comment="kpoint 4">
       <r>   -4.4998    1.0000 </r>
       <r>   -0.6989    1.0000 </r>
       <r>    3.7608    1.0000 </r>
       <r>    4.2711    1.0000 </r>
       <r>    7.0882    0.0000 </r>
       <r>    8.7841    0.0000 </r>
       <r>    8.7978    0.0000 </r>
       <r>   12.9952    0.0000 </r>
      </set>
      <set comment="kpoint 5">
       <r>   -4.0749    1.0000 </r>
       <r>   -1.3687    1.0000 </r>
       <r>    3.8054    1.0000 </r>
       <r>    4.0615    1.0000 </r>
       <r>    7.0099    0.0000 </r>
       <r>    8.6017    0.0000 </r>
       <r>    8.8633    0.0000 </r>
       <r>   13.0979    0.0000 </r>
      </set>
      <set comment="kpoint 6">
       <r>   -4.7954    1.0000 </r>
       <r>   -0.1616    1.0000 </r>
       <r>    4.0822    1.0000 </r>
       <r>    4.0844    1.0000 </r>
       <r>    7.1781    0.0000 </r>
       <r>    8.5953    0.0000 </r>
       <r>    9.1016    0.0000 </r>
       <r>   12.1356    0.0000 </r>
      </set>
      <set comment="kpoint 7">
       <r>   -5.6104    1.0000 </r>
       <r>    1.8310    1.0000 </r>
       <r>    4.3546    1.0000 </r>
       <r>    4.5336    1.0000 </r>
       <r>    7.5432    0.0000 </r>
       <r>    8.4223    0.0000 </r>
       <r>    9.1313    0.0000 </r>
       <r>   10.9271    0.0000 </r>
      </set>
      <set comment="kpoint 8">
       <r>   -6.1190    1.0000 </r>
       <r>    4.0205    1.0000 </r>
       <r>    4.8213    1.0000 </r>
       <r>    4.9649    1.0000 </r>
       <r>    7.6892    0.0000 </r>
       <r>    8.1780    0.0000 </r>
       <r>    8.5274    0.0000 </r>
       <r>    9.3309    0.0000 </r>
      </set>
      <set comment="kpoint 9">
       <r>   -5.8597    1.0000 </r>
       <r>    3.1258    1.0000 </r>
       <r>    4.2846    1.0000 </r>
       <r>    4.3542    1.0000 </r>
       <r>    7.2853    0.0000 </r>
       <r>    8.8992    0.0000 </r>
       <r>    9.3577    0.0000 </r>
       <r>    9.8140    0.0000 </r>
      </set>
      <set comment="kpoint 10">
       <r>   -5.3531    1.0000 </r>
       <r>    1.6610    1.0000 </r>
       <r>    3.3464    1.0000 </r>
       <r>    4.1055    1.0000 </r>
       <r>    7.4473    0.0000 </r>
       <r>    9.0032    0.0000 </r>
       <r>    9.7565    0.0000 </r>
       <r>   10.1347    0.0000 </r>
      </set>
      <set comment="kpoint 11">
       <r>   -4.5398    1.0000 </r>
       <r>   -0.1278    1.0000 </r>
       <r>    2.8533    1.0000 </r>
       <r>    3.7138    1.0000 </r>
       <r>    7.6236    0.0000 </r>
       <r>    8.9955    0.0000 </r>
       <r>   10.1628    0.0000 </r>
       <r>   10.4706    0.0000 </r>
      </set>
      <set comment="kpoint 12">
       <r>   -3.8146    1.0000 </r>
       <r>   -1.2846    1.0000 </r>
       <r>    2.5694    1.0000 </r>
       <r>    3.6255    1.0000 </r>
       <r>    7.6738    0.0000 </r>
       <r>    8.7334    0.0000 </r>
       <r>   10.0283    0.0000 </r>
       <r>   12.4141    0.0000 </r>
      </set>
      <set comment="kpoint 13">
       <r>   -4.2494    1.0000 </r>
       <r>   -0.6260    1.0000 </r>
       <r>    2.5048    1.0000 </r>
       <r>    3.8977    1.0000 </r>
       <r>    7.9203    0.0000 </r>
       <r>    8.6700    0.0000 </r>
       <r>    9.9683    0.0000 </r>
       <r>   11.6915    0.0000 </r>
      </set>
      <set comment="kpoint 14">
       <r>   -5.1143    1.0000 </r>
       <r>    1.0345    1.0000 </r>
       <r>    2.8108    1.0000 </r>
       <r>    4.3844    1.0000 </r>
       <r>    8.2334    0.0000 </r>
       <r>    8.5580    0.0000 </r>
       <r>    9.8407    0.0000 </r>
       <r>   10.3379    0.0000 </r>
      </set>
      <set comment="kpoint 15">
       <r>   -5.7338    1.0000 </r>
       <r>    2.4783    1.0000 </r>
       <r>    3.8974    1.0000 </r>
       <r>    4.7428    1.0000 </r>
       <r>    7.8183    0.0000 </r>
       <r>    8.3976    0.0000 </r>
       <r>    9.1771    0.0000 </r>
       <r>   10.3520    0.0000 </r>
      </set>
      <set comment="kpoint 16">
       <r>   -4.9657    1.0000 </r>
       <r>    1.1476    1.0000 </r>
       <r>    3.2103    1.0000 </r>
       <r>    3.3277    1.0000 </r>
       <r>    6.5042    0.0000 </r>
       <r>    8.1374    0.0000 </r>
       <r>   11.1508    0.0000 </r>
       <r>   11.3063    0.0000 </r>
      </set>
      <set comment="kpoint 17">
       <r>   -4.2405    1.0000 </r>
       <r>   -0.0528    1.0000 </r>
       <r>    2.4545    1.0000 </r>
       <r>    2.9949    1.0000 </r>
       <r>    6.8122    0.0000 </r>
       <r>    7.9802    0.0000 </r>
       <r>   11.1167    0.0000 </r>
       <r>   12.2685    0.0000 </r>
      </set>
      <set comment="kpoint 18">
       <r>   -3.3803    1.0000 </r>
       <r>   -1.2021    1.0000 </r>
       <r>    1.6456    1.0000 </r>
       <r>    2.9640    1.0000 </r>
       <r>    7.0458    0.0000 </r>
       <r>    9.5942    0.0000 </r>
       <r>   10.7028    0.0000 </r>
       <r>   12.1814    0.0000 </r>
      </set>
      <set comment="kpoint 19">
       <r>   -3.4510    1.0000 </r>
       <r>   -1.1099    1.0000 </r>
       <r>    1.3098    1.0000 </r>
       <r>    3.2944    1.0000 </r>
       <r>    7.4292    0.0000 </r>
       <r>   10.2865    0.0000 </r>
       <r>   11.5284    0.0000 </r>
       <r>   11.8897    0.0000 </r>
      </set>
      <set comment="kpoint 20">
       <r>   -4.3108    1.0000 </r>
       <r>   -0.1790    1.0000 </r>
       <r>    1.8854    1.0000 </r>
       <r>    3.8559    1.0000 </r>
       <r>    8.0157    0.0000 </r>
       <r>    9.2098    0.0000 </r>
       <r>   10.5787    0.0000 </r>
       <r>   10.8876    0.0000 </r>
      </set>
      <set comment="kpoint 21">
       <r>   -5.0057    1.0000 </r>
       <r>    0.4656    1.0000 </r>
       <r>    3.4468    1.0000 </r>
       <r>    4.2877    1.0000 </r>
       <r>    7.6803    0.0000 </r>
       <r>    8.5989    0.0000 </r>
       <r>    9.4383    0.0000 </r>
       <r>   11.0950    0.0000 </r>
      </set>
      <set comment="kpoint 22">
       <r>   -3.6082    1.0000 </r>
       <r>   -0.8921    1.0000 </r>
       <r>    2.5475    1.0000 </r>
       <r>    2.7532    1.0000 </r>
       <r>    6.1310    0.0004 </r>
       <r>    6.8359    0.0000 </r>
       <r>   13.3802    0.0000 </r>
       <r>   13.4097    0.0000 </r>
      </set>
      <set comment="kpoint 23">
       <r>   -2.7316    1.0000 </r>
       <r>   -1.8505    1.0000 </r>
       <r>    2.0163    1.0000 </r>
       <r>    2.5219    1.0000 </r>
       <r>    6.5543    0.0000 </r>
       <r>    7.2608    0.0000 </r>
       <r>   13.1515    0.0000 </r>
       <r>   14.1062    0.0000 </r>
      </set>
      <set comment="kpoint 24">
       <r>   -2.8340    1.0000 </r>
       <r>   -1.6842    1.0000 </r>
       <r>    1.3202    1.0000 </r>
       <r>    2.8253    1.0000 </r>
       <r>    6.9051    0.0000 </r>
       <r>    9.4381    0.0000 </r>
       <r>   11.6693    0.0000 </r>
       <r>   12.7669    0.0000 </r>
      </set>
      <set comment="kpoint 25">
       <r>   -3.5668    1.0000 </r>
       <r>   -1.2568    1.0000 </r>
       <r>    1.8281    1.0000 </r>
       <r>    3.4035    1.0000 </r>
       <r>    7.5390    0.0000 </r>
       <r>    9.4495    0.0000 </r>
       <r>   10.9446    0.0000 </r>
       <r>   12.1723    0.0000 </r>
      </set>
      <set comment="kpoint 26">
       <r>   -4.1526    1.0000 </r>
       <r>   -1.0895    1.0000 </r>
       <r>    3.2704    1.0000 </r>
       <r>    3.9661    1.0000 </r>
       <r>    7.4707    0.0000 </r>
       <r>    8.5364    0.0000 </r>
       <r>    9.2765    0.0000 </r>
       <r>   12.7356    0.0000 </r>
      </set>
      <set comment="kpoint 27">
       <r>   -2.7790    1.0000 </r>
       <r>   -1.8659    1.0000 </r>
       <r>    2.4144    1.0000 </r>
       <r>    2.6357    1.0000 </r>
       <r>    6.1340    0.0004 </r>
       <r>    6.4848    0.0000 </r>
       <r>   14.4276    0.0000 </r>
       <r>   14.4791    0.0000 </r>
      </set>
      <set comment="kpoint 28">
       <r>   -3.5271    1.0000 </r>
       <r>   -0.9545    1.0000 </r>
       <r>    2.1663    1.0000 </r>
       <r>    2.6765    1.0000 </r>
       <r>    6.6346    0.0000 </r>
       <r>    7.5093    0.0000 </r>
       <r>   12.1084    0.0000 </r>
       <r>   13.3902    0.0000 </r>
      </set>
      <set comment="kpoint 29">
       <r>   -3.9860    1.0000 </r>
       <r>   -0.6732    1.0000 </r>
       <r>    2.2094    1.0000 </r>
       <r>    3.2531    1.0000 </r>
       <r>    7.3084    0.0000 </r>
       <r>    9.7710    0.0000 </r>
       <r>    9.9363    0.0000 </r>
       <r>   11.1552    0.0000 </r>
      </set>
      <set comment="kpoint 30">
       <r>   -4.3410    1.0000 </r>
       <r>    0.1213    1.0000 </r>
       <r>    2.8132    1.0000 </r>
       <r>    2.9857    1.0000 </r>
       <r>    6.2529    0.0000 </r>
       <r>    7.3999    0.0000 </r>
       <r>   12.2491    0.0000 </r>
       <r>   12.3449    0.0000 </r>
      </set>
      <set comment="kpoint 31">
       <r>   -4.8529    1.0000 </r>
       <r>    0.8219    1.0000 </r>
       <r>    2.8566    1.0000 </r>
       <r>    3.4827    1.0000 </r>
       <r>    7.0898    0.0000 </r>
       <r>    8.6273    0.0000 </r>
       <r>   10.1995    0.0000 </r>
       <r>   11.1720    0.0000 </r>
      </set>
      <set comment="kpoint 32">
       <r>   -5.4739    1.0000 </r>
       <r>    2.1585    1.0000 </r>
       <r>    3.7329    1.0000 </r>
       <r>    3.7683    1.0000 </r>
       <r>    6.8625    0.0000 </r>
       <r>    8.9328    0.0000 </r>
       <r>   10.1478    0.0000 </r>
       <r>   10.3039    0.0000 </r>
      </set>
      <set comment="kpoint 33">
       <r>   -5.8630    1.0000 </r>
       <r>    2.5846    1.0000 </r>
       <r>    4.8031    1.0000 </r>
       <r>    4.8031    1.0000 </r>
       <r>    7.4017    0.0000 </r>
       <r>    8.5700    0.0000 </r>
       <r>    8.5700    0.0000 </r>
       <r>   10.7052    0.0000 </r>
      </set>
      <set comment="kpoint 34">
       <r>   -5.4840    1.0000 </r>
       <r>    1.7497    1.0000 </r>
       <r>    3.3448    1.0000 </r>
       <r>    4.8161    1.0000 </r>
       <r>    8.0543    0.0000 </r>
       <r>    8.6927    0.0000 </r>
       <r>    8.9665    0.0000 </r>
       <r>   10.8723    0.0000 </r>
      </set>
      <set comment="kpoint 35">
       <r>   -4.7634    1.0000 </r>
       <r>    0.4105    1.0000 </r>
       <r>    2.3013    1.0000 </r>
       <r>    4.3296    1.0000 </r>
       <r>    7.9518    0.0000 </r>
       <r>    9.4312    0.0000 </r>
       <r>    9.6149    0.0000 </r>
       <r>   11.1580    0.0000 </r>
      </set>
      <set comment="kpoint 36">
       <r>   -3.9063    1.0000 </r>
       <r>   -1.0174    1.0000 </r>
       <r>    2.1411    1.0000 </r>
       <r>    3.8183    1.0000 </r>
       <r>    7.4924    0.0000 </r>
       <r>    9.5747    0.0000 </r>
       <r>    9.8315    0.0000 </r>
       <r>   12.9881    0.0000 </r>
      </set>
      <set comment="kpoint 37">
       <r>   -3.8909    1.0000 </r>
       <r>   -1.0451    1.0000 </r>
       <r>    2.4262    1.0000 </r>
       <r>    3.5129    1.0000 </r>
       <r>    7.2372    0.0000 </r>
       <r>    9.6326    0.0000 </r>
       <r>   10.1690    0.0000 </r>
       <r>   11.1132    0.0000 </r>
      </set>
      <set comment="kpoint 38">
       <r>   -4.7463    1.0000 </r>
       <r>    0.4074    1.0000 </r>
       <r>    3.0209    1.0000 </r>
       <r>    3.4920    1.0000 </r>
       <r>    7.1753    0.0000 </r>
       <r>    9.2949    0.0000 </r>
       <r>    9.9248    0.0000 </r>
       <r>   10.5163    0.0000 </r>
      </set>
      <set comment="kpoint 39">
       <r>   -5.2360    1.0000 </r>
       <r>    1.1071    1.0000 </r>
       <r>    3.8151    1.0000 </r>
       <r>    3.8963    1.0000 </r>
       <r>    7.5358    0.0000 </r>
       <r>    8.8239    0.0000 </r>
       <r>    9.7881    0.0000 </r>
       <r>   10.1878    0.0000 </r>
      </set>
      <set comment="kpoint 40">
       <r>   -4.6314    1.0000 </r>
       <r>    0.3375    1.0000 </r>
       <r>    2.3565    1.0000 </r>
       <r>    3.7057    1.0000 </r>
       <r>    8.0314    0.0000 </r>
       <r>    9.0072    0.0000 </r>
       <r>    9.5579    0.0000 </r>
       <r>   11.0013    0.0000 </r>
      </set>
      <set comment="kpoint 41">
       <r>   -3.7741    1.0000 </r>
       <r>   -0.7378    1.0000 </r>
       <r>    1.5985    1.0000 </r>
       <r>    3.1629    1.0000 </r>
       <r>    8.4737    0.0000 </r>
       <r>    8.9512    0.0000 </r>
       <r>   10.1955    0.0000 </r>
       <r>   12.0702    0.0000 </r>
      </set>
      <set comment="kpoint 42">
       <r>   -3.3084    1.0000 </r>
       <r>   -1.3242    1.0000 </r>
       <r>    1.5959    1.0000 </r>
       <r>    2.8640    1.0000 </r>
       <r>    8.0240    0.0000 </r>
       <r>    9.2700    0.0000 </r>
       <r>   10.9590    0.0000 </r>
       <r>   12.1840    0.0000 </r>
      </set>
      <set comment="kpoint 43">
       <r>   -4.0464    1.0000 </r>
       <r>   -0.3627    1.0000 </r>
       <r>    2.0080    1.0000 </r>
       <r>    3.0350    1.0000 </r>
       <r>    7.7606    0.0000 </r>
       <r>    8.9597    0.0000 </r>
       <r>    9.7624    0.0000 </r>
       <r>   12.1866    0.0000 </r>
      </set>
      <set comment="kpoint 44">
       <r>   -4.1515    1.0000 </r>
       <r>   -0.3018    1.0000 </r>
       <r>    2.3255    1.0000 </r>
       <r>    3.1720    1.0000 </r>
       <r>    6.8146    0.0000 </r>
       <r>    8.7952    0.0000 </r>
       <r>   10.9432    0.0000 </r>
       <r>   11.3198    0.0000 </r>
      </set>
      <set comment="kpoint 45">
       <r>   -3.3765    1.0000 </r>
       <r>   -1.0894    1.0000 </r>
       <r>    1.7775    1.0000 </r>
       <r>    2.5206    1.0000 </r>
       <r>    7.5667    0.0000 </r>
       <r>    8.5610    0.0000 </r>
       <r>   10.6365    0.0000 </r>
       <r>   13.3516    0.0000 </r>
      </set>
      <set comment="kpoint 46">
       <r>   -2.6005    1.0000 </r>
       <r>   -1.8244    1.0000 </r>
       <r>    1.4768    1.0000 </r>
       <r>    2.0409    1.0000 </r>
       <r>    8.6637    0.0000 </r>
       <r>    9.5848    0.0000 </r>
       <r>   10.1897    0.0000 </r>
       <r>   11.1847    0.0000 </r>
      </set>
      <set comment="kpoint 47">
       <r>   -3.1821    1.0000 </r>
       <r>   -1.2871    1.0000 </r>
       <r>    1.4644    1.0000 </r>
       <r>    2.4973    1.0000 </r>
       <r>    8.7594    0.0000 </r>
       <r>    9.1653    0.0000 </r>
       <r>    9.8917    0.0000 </r>
       <r>   12.3210    0.0000 </r>
      </set>
      <set comment="kpoint 48">
       <r>   -2.7555    1.0000 </r>
       <r>   -1.7993    1.0000 </r>
       <r>    1.5762    1.0000 </r>
       <r>    2.8406    1.0000 </r>
       <r>    6.4016    0.0000 </r>
       <r>    8.2478    0.0000 </r>
       <r>   13.0803    0.0000 </r>
       <r>   13.2385    0.0000 </r>
      </set>
      <set comment="kpoint 49">
       <r>   -2.6582    1.0000 </r>
       <r>   -1.8328    1.0000 </r>
       <r>    1.6664    1.0000 </r>
       <r>    2.2440    1.0000 </r>
       <r>    7.4676    0.0000 </r>
       <r>    8.3602    0.0000 </r>
       <r>   11.6180    0.0000 </r>
       <r>   12.7014    0.0000 </r>
      </set>
      <set comment="kpoint 50">
       <r>   -3.4701    1.0000 </r>
       <r>   -1.0491    1.0000 </r>
       <r>    1.8286    1.0000 </r>
       <r>    2.9522    1.0000 </r>
       <r>    6.5443    0.0000 </r>
       <r>    8.4293    0.0000 </r>
       <r>   12.0748    0.0000 </r>
       <r>   12.2003    0.0000 </r>
      </set>
      <set comment="kpoint 51">
       <r>   -5.1333    1.0000 </r>
       <r>    0.4440    1.0000 </r>
       <r>    4.4009    1.0000 </r>
       <r>    4.4009    1.0000 </r>
       <r>    6.9489    0.0000 </r>
       <r>    8.8176    0.0000 </r>
       <r>    8.8176    0.0000 </r>
       <r>   12.7463    0.0000 </r>
      </set>
      <set comment="kpoint 52">
       <r>   -4.6711    1.0000 </r>
       <r>   -0.1246    1.0000 </r>
       <r>    2.9781    1.0000 </r>
       <r>    4.3148    1.0000 </r>
       <r>    7.6834    0.0000 </r>
       <r>    9.0302    0.0000 </r>
       <r>    9.0829    0.0000 </r>
       <r>   12.1638    0.0000 </r>
      </set>
      <set comment="kpoint 53">
       <r>   -3.9081    1.0000 </r>
       <r>   -0.6683    1.0000 </r>
       <r>    1.5207    1.0000 </r>
       <r>    3.7570    1.0000 </r>
       <r>    7.4318    0.0000 </r>
       <r>   10.4276    0.0000 </r>
       <r>   10.5719    0.0000 </r>
       <r>   11.9033    0.0000 </r>
      </set>
      <set comment="kpoint 54">
       <r>   -3.1193    1.0000 </r>
       <r>   -1.4341    1.0000 </r>
       <r>    1.2023    1.0000 </r>
       <r>    3.2303    1.0000 </r>
       <r>    6.8491    0.0000 </r>
       <r>   10.6551    0.0000 </r>
       <r>   11.6640    0.0000 </r>
       <r>   11.8677    0.0000 </r>
      </set>
      <set comment="kpoint 55">
       <r>   -4.3697    1.0000 </r>
       <r>   -0.6623    1.0000 </r>
       <r>    3.2944    1.0000 </r>
       <r>    3.7743    1.0000 </r>
       <r>    7.4390    0.0000 </r>
       <r>    8.7843    0.0000 </r>
       <r>    9.5576    0.0000 </r>
       <r>   11.5403    0.0000 </r>
      </set>
      <set comment="kpoint 56">
       <r>   -3.7734    1.0000 </r>
       <r>   -1.0266    1.0000 </r>
       <r>    2.0394    1.0000 </r>
       <r>    3.3209    1.0000 </r>
       <r>    8.2121    0.0000 </r>
       <r>    8.5849    0.0000 </r>
       <r>   11.0141    0.0000 </r>
       <r>   11.3032    0.0000 </r>
      </set>
      <set comment="kpoint 57">
       <r>   -2.9850    1.0000 </r>
       <r>   -1.5033    1.0000 </r>
       <r>    1.2913    1.0000 </r>
       <r>    2.6365    1.0000 </r>
       <r>    7.9023    0.0000 </r>
       <r>   10.0995    0.0000 </r>
       <r>   10.8461    0.0000 </r>
       <r>   11.3485    0.0000 </r>
      </set>
      <set comment="kpoint 58">
       <r>   -3.4294    1.0000 </r>
       <r>   -1.3036    1.0000 </r>
       <r>    1.6690    1.0000 </r>
       <r>    3.3267    1.0000 </r>
       <r>    6.9897    0.0000 </r>
       <r>   10.6115    0.0000 </r>
       <r>   10.9089    0.0000 </r>
       <r>   10.9207    0.0000 </r>
      </set>
      <set comment="kpoint 59">
       <r>   -4.2817    1.0000 </r>
       <r>   -1.1425    1.0000 </r>
       <r>    4.1848    1.0000 </r>
       <r>    4.1848    1.0000 </r>
       <r>    6.6971    0.0000 </r>
       <r>    8.6987    0.0000 </r>
       <r>    8.6987    0.0000 </r>
       <r>   13.0027    0.0000 </r>
      </set>
      <set comment="kpoint 60">
       <r>   -3.9456    1.0000 </r>
       <r>   -1.3170    1.0000 </r>
       <r>    2.9904    1.0000 </r>
       <r>    3.9282    1.0000 </r>
       <r>    7.4496    0.0000 </r>
       <r>    8.7979    0.0000 </r>
       <r>    9.2590    0.0000 </r>
       <r>   13.3262    0.0000 </r>
      </set>
     </set>
    </set>
   </array>
  </eigenvalues>
  <separator name="orbital magnetization" >
   <v name="MAGDIPOLOUT">      0.00000000      0.00000000      0.00000000</v>
  </separator>
  <dos>
   <i name="efermi">      5.65940042 </i>
   <total>
    <array>
     <dimension dim="1">gridpoints</dimension>
     <dimension dim="2">spin</dimension>
     <field>energy</field>
     <field>total</field>
     <field>integrated</field>
     <set>
      <set comment="spin 1">
       <r>    -8.2492     0.0000     0.0000 </r>
       <r>    -8.1668     0.0000     0.0000 </r>
       <r>    -8.0844     0.0000     0.0000 </r>
       <r>    -8.0019     0.0000     0.0000 </r>
       <r>    -7.9195     0.0000     0.0000 </r>
       <r>    -7.8371     0.0000     0.0000 </r>
       <r>    -7.7546     0.0000     0.0000 </r>
       <r>    -7.6722     0.0000     0.0000 </r>
       <r>    -7.5898     0.0000     0.0000 </r>
       <r>    -7.5074     0.0000     0.0000 </r>
       <r>    -7.4249     0.0000     0.0000 </r>
       <r>    -7.3425     0.0000     0.0000 </r>
       <r>    -7.2601     0.0000     0.0000 </r>
       <r>    -7.1777     0.0000     0.0000 </r>
       <r>    -7.0952     0.0000     0.0000 </r>
       <r>    -7.0128     0.0000     0.0000 </r>
       <r>    -6.9304     0.0000     0.0000 </r>
       <r>    -6.8479     0.0000     0.0000 </r>
       <r>    -6.7655     0.0000     0.0000 </r>
       <r>    -6.6831     0.0001     0.0000 </r>
       <r>    -6.6007     0.0006     0.0001 </r>
       <r>    -6.5182     0.0027     0.0003 </r>
       <r>    -6.4358     0.0093     0.0010 </r>
       <r>    -6.3534     0.0246     0.0031 </r>
       <r>    -6.2709     0.0519     0.0074 </r>
       <r>    -6.1885     0.0896     0.0147 </r>
       <r>    -6.1061     0.1305     0.0255 </r>
       <r>    -6.0237     0.1682     0.0394 </r>
       <r>    -5.9412     0.2025     0.0560 </r>
       <r>    -5.8588     0.2357     0.0755 </r>
       <r>    -5.7764     0.2643     0.0973 </r>
       <r>    -5.6940     0.2824     0.1205 </r>
       <r>    -5.6115     0.2957     0.1449 </r>
       <r>    -5.5291     0.3198     0.1713 </r>
       <r>    -5.4467     0.3576     0.2007 </r>
       <r>    -5.3642     0.3886     0.2328 </r>
       <r>    -5.2818     0.3965     0.2655 </r>
       <r>    -5.1994     0.3948     0.2980 </r>
       <r>    -5.1170     0.4076     0.3316 </r>
       <r>    -5.0345     0.4379     0.3677 </r>
       <r>    -4.9521     0.4730     0.4067 </r>
       <r>    -4.8697     0.5071     0.4485 </r>
       <r>    -4.7872     0.5389     0.4929 </r>
       <r>    -4.7048     0.5595     0.5390 </r>
       <r>    -4.6224     0.5597     0.5852 </r>
       <r>    -4.5400     0.5479     0.6303 </r>
       <r>    -4.4575     0.5565     0.6762 </r>
       <r>    -4.3751     0.6187     0.7272 </r>
       <r>    -4.2927     0.7229     0.7868 </r>
       <r>    -4.2103     0.8123     0.8537 </r>
       <r>    -4.1278     0.8499     0.9238 </r>
       <r>    -4.0454     0.8539     0.9942 </r>
       <r>    -3.9630     0.8551     1.0646 </r>
       <r>    -3.8805     0.8502     1.1347 </r>
       <r>    -3.7981     0.8145     1.2019 </r>
       <r>    -3.7157     0.7529     1.2639 </r>
       <r>    -3.6333     0.7197     1.3232 </r>
       <r>    -3.5508     0.7603     1.3859 </r>
       <r>    -3.4684     0.8390     1.4551 </r>
       <r>    -3.3860     0.8641     1.5263 </r>
       <r>    -3.3035     0.7849     1.5910 </r>
       <r>    -3.2211     0.6373     1.6435 </r>
       <r>    -3.1387     0.4954     1.6844 </r>
       <r>    -3.0563     0.4075     1.7180 </r>
       <r>    -2.9738     0.3881     1.7499 </r>
       <r>    -2.8914     0.4341     1.7857 </r>
       <r>    -2.8090     0.5193     1.8285 </r>
       <r>    -2.7266     0.5837     1.8766 </r>
       <r>    -2.6441     0.5638     1.9231 </r>
       <r>    -2.5617     0.4458     1.9599 </r>
       <r>    -2.4793     0.2805     1.9830 </r>
       <r>    -2.3968     0.1374     1.9943 </r>
       <r>    -2.3144     0.0521     1.9986 </r>
       <r>    -2.2320     0.0197     2.0002 </r>
       <r>    -2.1496     0.0284     2.0026 </r>
       <r>    -2.0671     0.0890     2.0099 </r>
       <r>    -1.9847     0.2246     2.0284 </r>
       <r>    -1.9023     0.4173     2.0628 </r>
       <r>    -1.8198     0.5767     2.1103 </r>
       <r>    -1.7374     0.6118     2.1608 </r>
       <r>    -1.6550     0.5399     2.2053 </r>
       <r>    -1.5726     0.4767     2.2446 </r>
       <r>    -1.4901     0.5267     2.2880 </r>
       <r>    -1.4077     0.7080     2.3463 </r>
       <r>    -1.3253     0.9509     2.4247 </r>
       <r>    -1.2428     1.1506     2.5196 </r>
       <r>    -1.1604     1.2435     2.6221 </r>
       <r>    -1.0780     1.2212     2.7227 </r>
       <r>    -0.9956     1.0905     2.8126 </r>
       <r>    -0.9131     0.8927     2.8862 </r>
       <r>    -0.8307     0.7291     2.9463 </r>
       <r>    -0.7483     0.6691     3.0014 </r>
       <r>    -0.6659     0.6577     3.0557 </r>
       <r>    -0.5834     0.5913     3.1044 </r>
       <r>    -0.5010     0.4662     3.1428 </r>
       <r>    -0.4186     0.3752     3.1738 </r>
       <r>    -0.3361     0.3832     3.2053 </r>
       <r>    -0.2537     0.4689     3.2440 </r>
       <r>    -0.1713     0.5593     3.2901 </r>
       <r>    -0.0889     0.5772     3.3377 </r>
       <r>    -0.0064     0.4941     3.3784 </r>
       <r>     0.0760     0.3619     3.4082 </r>
       <r>     0.1584     0.2675     3.4303 </r>
       <r>     0.2409     0.2610     3.4518 </r>
       <r>     0.3233     0.3262     3.4787 </r>
       <r>     0.4057     0.3916     3.5110 </r>
       <r>     0.4881     0.3840     3.5426 </r>
       <r>     0.5706     0.2991     3.5673 </r>
       <r>     0.6530     0.2043     3.5841 </r>
       <r>     0.7354     0.1633     3.5976 </r>
       <r>     0.8178     0.1816     3.6125 </r>
       <r>     0.9003     0.2343     3.6318 </r>
       <r>     0.9827     0.3127     3.6576 </r>
       <r>     1.0651     0.4185     3.6921 </r>
       <r>     1.1476     0.5380     3.7365 </r>
       <r>     1.2300     0.6485     3.7899 </r>
       <r>     1.3124     0.7402     3.8509 </r>
       <r>     1.3948     0.8275     3.9191 </r>
       <r>     1.4773     0.9444     3.9970 </r>
       <r>     1.5597     1.0958     4.0873 </r>
       <r>     1.6421     1.2212     4.1880 </r>
       <r>     1.7246     1.2502     4.2910 </r>
       <r>     1.8070     1.1861     4.3888 </r>
       <r>     1.8894     1.1010     4.4795 </r>
       <r>     1.9718     1.0588     4.5668 </r>
       <r>     2.0543     1.0627     4.6544 </r>
       <r>     2.1367     1.0761     4.7431 </r>
       <r>     2.2191     1.0868     4.8327 </r>
       <r>     2.3015     1.1347     4.9262 </r>
       <r>     2.3840     1.2630     5.0303 </r>
       <r>     2.4664     1.4336     5.1485 </r>
       <r>     2.5488     1.5298     5.2746 </r>
       <r>     2.6313     1.4945     5.3978 </r>
       <r>     2.7137     1.4204     5.5149 </r>
       <r>     2.7961     1.4259     5.6324 </r>
       <r>     2.8785     1.4939     5.7556 </r>
       <r>     2.9610     1.5162     5.8805 </r>
       <r>     3.0434     1.4608     6.0010 </r>
       <r>     3.1258     1.4197     6.1180 </r>
       <r>     3.2083     1.4805     6.2400 </r>
       <r>     3.2907     1.5863     6.3708 </r>
       <r>     3.3731     1.5840     6.5013 </r>
       <r>     3.4555     1.4152     6.6180 </r>
       <r>     3.5380     1.1946     6.7165 </r>
       <r>     3.6204     1.0914     6.8064 </r>
       <r>     3.7028     1.1672     6.9026 </r>
       <r>     3.7852     1.3289     7.0122 </r>
       <r>     3.8677     1.4252     7.1297 </r>
       <r>     3.9501     1.3760     7.2431 </r>
       <r>     4.0325     1.2132     7.3431 </r>
       <r>     4.1150     1.0338     7.4283 </r>
       <r>     4.1974     0.9252     7.5045 </r>
       <r>     4.2798     0.8987     7.5786 </r>
       <r>     4.3622     0.8735     7.6506 </r>
       <r>     4.4447     0.7662     7.7138 </r>
       <r>     4.5271     0.5974     7.7630 </r>
       <r>     4.6095     0.4649     7.8013 </r>
       <r>     4.6920     0.4229     7.8362 </r>
       <r>     4.7744     0.4291     7.8716 </r>
       <r>     4.8568     0.4084     7.9052 </r>
       <r>     4.9392     0.3381     7.9331 </r>
       <r>     5.0217     0.2535     7.9540 </r>
       <r>     5.1041     0.1894     7.9696 </r>
       <r>     5.1865     0.1455     7.9816 </r>
       <r>     5.2689     0.1062     7.9904 </r>
       <r>     5.3514     0.0664     7.9958 </r>
       <r>     5.4338     0.0332     7.9986 </r>
       <r>     5.5162     0.0128     7.9996 </r>
       <r>     5.5987     0.0037     7.9999 </r>
       <r>     5.6811     0.0012     8.0000 </r>
       <r>     5.7635     0.0024     8.0002 </r>
       <r>     5.8459     0.0101     8.0010 </r>
       <r>     5.9284     0.0328     8.0038 </r>
       <r>     6.0108     0.0786     8.0102 </r>
       <r>     6.0932     0.1408     8.0218 </r>
       <r>     6.1757     0.1971     8.0381 </r>
       <r>     6.2581     0.2364     8.0576 </r>
       <r>     6.3405     0.2819     8.0808 </r>
       <r>     6.4229     0.3629     8.1107 </r>
       <r>     6.5054     0.4675     8.1493 </r>
       <r>     6.5878     0.5506     8.1946 </r>
       <r>     6.6702     0.5997     8.2441 </r>
       <r>     6.7526     0.6540     8.2980 </r>
       <r>     6.8351     0.7377     8.3588 </r>
       <r>     6.9175     0.8200     8.4264 </r>
       <r>     6.9999     0.8674     8.4979 </r>
       <r>     7.0824     0.8893     8.5712 </r>
       <r>     7.1648     0.9281     8.6477 </r>
       <r>     7.2472     1.0397     8.7334 </r>
       <r>     7.3296     1.2620     8.8374 </r>
       <r>     7.4121     1.5516     8.9653 </r>
       <r>     7.4945     1.7669     9.1109 </r>
       <r>     7.5769     1.7817     9.2578 </r>
       <r>     7.6594     1.6157     9.3910 </r>
       <r>     7.7418     1.4083     9.5071 </r>
       <r>     7.8242     1.2851     9.6130 </r>
       <r>     7.9066     1.2707     9.7177 </r>
       <r>     7.9891     1.2890     9.8240 </r>
       <r>     8.0715     1.2518     9.9272 </r>
       <r>     8.1539     1.1554    10.0224 </r>
       <r>     8.2363     1.0736    10.1109 </r>
       <r>     8.3188     1.0877    10.2006 </r>
       <r>     8.4012     1.2484    10.3035 </r>
       <r>     8.4836     1.5425    10.4306 </r>
       <r>     8.5661     1.8597    10.5839 </r>
       <r>     8.6485     2.0493    10.7528 </r>
       <r>     8.7309     2.0473    10.9216 </r>
       <r>     8.8133     1.9257    11.0803 </r>
       <r>     8.8958     1.8008    11.2287 </r>
       <r>     8.9782     1.7133    11.3700 </r>
       <r>     9.0606     1.6267    11.5040 </r>
       <r>     9.1431     1.5217    11.6295 </r>
       <r>     9.2255     1.4240    11.7468 </r>
       <r>     9.3079     1.3529    11.8584 </r>
       <r>     9.3903     1.3104    11.9664 </r>
       <r>     9.4728     1.2954    12.0732 </r>
       <r>     9.5552     1.2938    12.1798 </r>
       <r>     9.6376     1.2899    12.2861 </r>
       <r>     9.7200     1.2939    12.3928 </r>
       <r>     9.8025     1.3152    12.5012 </r>
       <r>     9.8849     1.3347    12.6112 </r>
       <r>     9.9673     1.3516    12.7226 </r>
       <r>    10.0498     1.4061    12.8385 </r>
       <r>    10.1322     1.4947    12.9617 </r>
       <r>    10.2146     1.5237    13.0873 </r>
       <r>    10.2970     1.4150    13.2040 </r>
       <r>    10.3795     1.2139    13.3040 </r>
       <r>    10.4619     1.0363    13.3894 </r>
       <r>    10.5443     0.9455    13.4674 </r>
       <r>    10.6268     0.9189    13.5431 </r>
       <r>    10.7092     0.9276    13.6196 </r>
       <r>    10.7916     1.0039    13.7023 </r>
       <r>    10.8740     1.1788    13.7995 </r>
       <r>    10.9565     1.3884    13.9139 </r>
       <r>    11.0389     1.5208    14.0393 </r>
       <r>    11.1213     1.5183    14.1644 </r>
       <r>    11.2037     1.3847    14.2786 </r>
       <r>    11.2862     1.1572    14.3740 </r>
       <r>    11.3686     0.9109    14.4491 </r>
       <r>    11.4510     0.7395    14.5100 </r>
       <r>    11.5335     0.6937    14.5672 </r>
       <r>    11.6159     0.7309    14.6274 </r>
       <r>    11.6983     0.7500    14.6893 </r>
       <r>    11.7807     0.7025    14.7472 </r>
       <r>    11.8632     0.6446    14.8003 </r>
       <r>    11.9456     0.6754    14.8560 </r>
       <r>    12.0280     0.8490    14.9260 </r>
       <r>    12.1105     1.1130    15.0177 </r>
       <r>    12.1929     1.3051    15.1253 </r>
       <r>    12.2753     1.2748    15.2304 </r>
       <r>    12.3577     1.0273    15.3150 </r>
       <r>    12.4402     0.7057    15.3732 </r>
       <r>    12.5226     0.4633    15.4114 </r>
       <r>    12.6050     0.3749    15.4423 </r>
       <r>    12.6875     0.4081    15.4759 </r>
       <r>    12.7699     0.4583    15.5137 </r>
       <r>    12.8523     0.4554    15.5513 </r>
       <r>    12.9347     0.4286    15.5866 </r>
       <r>    13.0172     0.4357    15.6225 </r>
       <r>    13.0996     0.4794    15.6620 </r>
       <r>    13.1820     0.5305    15.7057 </r>
       <r>    13.2644     0.5754    15.7532 </r>
       <r>    13.3469     0.5929    15.8020 </r>
       <r>    13.4293     0.5352    15.8462 </r>
       <r>    13.5117     0.3893    15.8782 </r>
       <r>    13.5942     0.2164    15.8961 </r>
       <r>    13.6766     0.0899    15.9035 </r>
       <r>    13.7590     0.0304    15.9060 </r>
       <r>    13.8414     0.0194    15.9076 </r>
       <r>    13.9239     0.0397    15.9109 </r>
       <r>    14.0063     0.0809    15.9175 </r>
       <r>    14.0887     0.1226    15.9276 </r>
       <r>    14.1712     0.1395    15.9391 </r>
       <r>    14.2536     0.1318    15.9500 </r>
       <r>    14.3360     0.1259    15.9604 </r>
       <r>    14.4184     0.1338    15.9714 </r>
       <r>    14.5009     0.1344    15.9825 </r>
       <r>    14.5833     0.1079    15.9914 </r>
       <r>    14.6657     0.0646    15.9967 </r>
       <r>    14.7481     0.0283    15.9991 </r>
       <r>    14.8306     0.0090    15.9998 </r>
       <r>    14.9130     0.0021    16.0000 </r>
       <r>    14.9954     0.0003    16.0000 </r>
       <r>    15.0779     0.0000    16.0000 </r>
       <r>    15.1603     0.0000    16.0000 </r>
       <r>    15.2427     0.0000    16.0000 </r>
       <r>    15.3251     0.0000    16.0000 </r>
       <r>    15.4076     0.0000    16.0000 </r>
       <r>    15.4900     0.0000    16.0000 </r>
       <r>    15.5724     0.0000    16.0000 </r>
       <r>    15.6549     0.0000    16.0000 </r>
       <r>    15.7373     0.0000    16.0000 </r>
       <r>    15.8197     0.0000    16.0000 </r>
       <r>    15.9021     0.0000    16.0000 </r>
       <r>    15.9846     0.0000    16.0000 </r>
       <r>    16.0670     0.0000    16.0000 </r>
       <r>    16.1494     0.0000    16.0000 </r>
       <r>    16.2318     0.0000    16.0000 </r>
       <r>    16.3143     0.0000    16.0000 </r>
       <r>    16.3967     0.0000    16.0000 </r>
       <r>    16.4791     0.0000    16.0000 </r>
      </set>
     </set>
    </array>
   </total>
  </dos>
 </calculation>
 <structure name="finalpos" >
  <crystal>
   <varray name="basis" >
    <v>       0.00000000       2.76307500       2.76307500 </v>
    <v>       2.76307500       0.00000000       2.76307500 </v>
    <v>       2.76307500       2.76307500       0.00000000 </v>
   </varray>
   <i name="volume">     42.18985336 </i>
   <varray name="rec_basis" >
    <v>      -0.18095781       0.18095781       0.18095781 </v>
    <v>       0.18095781      -0.18095781       0.18095781 </v>
    <v>       0.18095781       0.18095781      -0.18095781 </v>
   </varray>
  </crystal>
  <varray name="positions" >
   <v>       0.50000000       0.50000000       0.50000000 </v>
   <v>       0.75000000       0.75000000       0.75000000 </v>
  </varray>
 </structure>
</modeling>
