 vasp.5.4.4.18Apr17-6-g9f103f2a35 (build Dec 09 2018 21:25:21) complex          
  
 executed on IFC18.0.1.163_CrayMP date 2019.03.19  13:20:48
 running on    8 total cores
 distrk:  each k-point on    8 cores,    1 groups
 distr:  one band on NCORES_PER_BAND=   1 cores,    8 groups


--------------------------------------------------------------------------------------------------------


 INCAR:
 POTCAR:   PAW_PBE Si 05Jan2001                   

 ----------------------------------------------------------------------------- 
|                                                                             |
|           W    W    AA    RRRRR   N    N  II  N    N   GGGG   !!!           |
|           W    W   A  A   R    R  NN   N  II  NN   N  G    G  !!!           |
|           W    W  A    A  R    R  N N  N  II  N N  N  G       !!!           |
|           W WW W  AAAAAA  RRRRR   N  N N  II  N  N N  G  GGG   !            |
|           WW  WW  A    A  R   R   N   NN  II  N   NN  G    G                |
|           W    W  A    A  R    R  N    N  II  N    N   GGGG   !!!           |
|                                                                             |
|      For optimal performance we recommend to set                            |
|        NCORE= 4 - approx SQRT( number of cores)                             |
|      NCORE specifies how many cores store one orbital (NPAR=cpu/NCORE).     |
|      This setting can  greatly improve the performance of VASP for DFT.     |
|      The default,   NCORE=1            might be grossly inefficient         |
|      on modern multi-core architectures or massively parallel machines.     |
|      Do your own testing !!!!                                               |
|      Unfortunately you need to use the default for GW and RPA calculations. |
|      (for HF NCORE is supported but not extensively tested yet)             |
|                                                                             |
 ----------------------------------------------------------------------------- 

 POTCAR:   PAW_PBE Si 05Jan2001                   
   VRHFIN =Si: s2p2                                                             
   LEXCH  = PE                                                                  
   EATOM  =   103.0669 eV,    7.5752 Ry                                         
                                                                                
   TITEL  = PAW_PBE Si 05Jan2001                                                
   LULTRA =        F    use ultrasoft PP ?                                      
   IUNSCR =        1    unscreen: 0-lin 1-nonlin 2-no                           
   RPACOR =    1.500    partial core radius                                     
   POMASS =   28.085; ZVAL   =    4.000    mass and valenz                      
   RCORE  =    1.900    outmost cutoff radius                                   
   RWIGS  =    2.480; RWIGS  =    1.312    wigner-seitz radius (au A)           
   ENMAX  =  245.345; ENMIN  =  184.009 eV                                      
   ICORE  =        2    local potential                                         
   LCOR   =        T    correct aug charges                                     
   LPAW   =        T    paw PP                                                  
   EAUG   =  322.069                                                            
   DEXC   =    -.007                                                            
   RMAX   =    2.944    core radius for proj-oper                               
   RAUG   =    1.300    factor for augmentation sphere                          
   RDEP   =    1.993    radius for radial grids                                 
   QCUT   =   -4.246; QGAM   =    8.493    optimization parameters              
                                                                                
   Description                                                                  
     l     E      TYP  RCUT    TYP  RCUT                                        
     0   .000     23  1.900                                                     
     0   .000     23  1.900                                                     
     1   .000     23  1.900                                                     
     1   .000     23  1.900                                                     
     2   .000      7  1.900                                                     
  local pseudopotential read in
  partial core-charges read in
  atomic valenz-charges read in
  non local Contribution for L=           0  read in
    real space projection operators read in
  non local Contribution for L=           0  read in
    real space projection operators read in
  non local Contribution for L=           1  read in
    real space projection operators read in
  non local Contribution for L=           1  read in
    real space projection operators read in
    PAW grid and wavefunctions read in
 
   number of l-projection  operators is LMAX  =           4
   number of lm-projection operators is LMMAX =           8
 
 PAW_PBE Si 05Jan2001                   :
 energy of atom  1       EATOM= -103.0669
 kinetic energy error for atom=    0.0013 (will be added to EATOM!!)
 
 
 POSCAR: Si2                                     
  positions in direct lattice
  No initial velocities read in
 exchange correlation table for  LEXCH =        8
   RHO(1)=    0.500       N(1)  =     2000
   RHO(2)=  100.500       N(2)  =     4000
 


--------------------------------------------------------------------------------------------------------


 ion  position               nearest neighbor table
   1  0.250  0.750  0.500-   2 2.53   2 2.53   2 2.53   2 2.53   2 3.11   2 3.11   2 3.11   2 3.11

   2  0.000  0.000  0.000-   1 2.53   1 2.53   1 2.53   1 2.53   1 3.11   1 3.11   1 3.11   1 3.11

 
  LATTYP: Found a body centered tetragonal cell.
 ALAT       =     4.9000000000
 C/A-ratio  =     0.5200000000
  
  Lattice vectors:
  
 A1 = (  -2.4500000000,   2.4500000000,   1.2740000000)
 A2 = (   2.4500000000,  -2.4500000000,   1.2740000000)
 A3 = (   2.4500000000,   2.4500000000,  -1.2740000000)


Analysis of symmetry for initial positions (statically):
=====================================================================
 Subroutine PRICEL returns:
 Original cell was already a primitive cell.
 

 Routine SETGRP: Setting up the symmetry group for a 
 body centered tetragonal supercell.


 Subroutine GETGRP returns: Found 16 space group operations
 (whereof  8 operations were pure point group operations)
 out of a pool of 16 trial point group operations.


The static configuration has the point symmetry D_2d.
 The point group associated with its full space group is D_4h.


Analysis of symmetry for dynamics (positions and initial velocities):
=====================================================================
 Subroutine PRICEL returns:
 Original cell was already a primitive cell.
 

 Routine SETGRP: Setting up the symmetry group for a 
 body centered tetragonal supercell.


 Subroutine GETGRP returns: Found 16 space group operations
 (whereof  8 operations were pure point group operations)
 out of a pool of 16 trial point group operations.


The dynamic configuration has the point symmetry D_2d.
 The point group associated with its full space group is D_4h.


 Subroutine INISYM returns: Found 16 space group operations
 (whereof  8 operations are pure point group operations),
 and found     1 'primitive' translations

 
 
 KPOINTS: Automatic kpoint scheme                 

Automatic generation of k-mesh.
Space group operators:
 irot       det(A)        alpha          n_x          n_y          n_z        tau_x        tau_y        tau_z
    1     1.000000     0.000000     1.000000     0.000000     0.000000     0.000000     0.000000     0.000000
    2    -1.000000    90.000000    -0.000000    -0.000000    -1.000000     0.000000     0.000000     0.000000
    3     1.000000   180.000000    -0.000000    -0.000000    -1.000000     0.000000     0.000000     0.000000
    4    -1.000000    90.000000    -0.000000     0.000000     1.000000     0.000000     0.000000     0.000000
    5    -1.000000   180.000000     0.000000    -1.000000     0.000000     0.000000     0.000000     0.000000
    6     1.000000   180.000000     0.707107     0.707107    -0.000000     0.000000     0.000000     0.000000
    7    -1.000000   180.000000     1.000000     0.000000     0.000000     0.000000     0.000000     0.000000
    8     1.000000   180.000000     0.707107    -0.707107     0.000000     0.000000     0.000000     0.000000
    9    -1.000000     0.000000     1.000000     0.000000     0.000000     0.250000     0.750000     0.500000
   10     1.000000    90.000000    -0.000000    -0.000000    -1.000000     0.250000     0.750000     0.500000
   11    -1.000000   180.000000    -0.000000    -0.000000    -1.000000     0.250000     0.750000     0.500000
   12     1.000000    90.000000    -0.000000     0.000000     1.000000     0.250000     0.750000     0.500000
   13     1.000000   180.000000     0.000000    -1.000000     0.000000     0.250000     0.750000     0.500000
   14    -1.000000   180.000000     0.707107     0.707107    -0.000000     0.250000     0.750000     0.500000
   15     1.000000   180.000000     1.000000     0.000000     0.000000     0.250000     0.750000     0.500000
   16    -1.000000   180.000000     0.707107    -0.707107     0.000000     0.250000     0.750000     0.500000
 
 Subroutine IBZKPT returns following result:
 ===========================================
 
 Found    159 irreducible k-points:
 
 Following reciprocal coordinates:
            Coordinates               Weight
  0.041667  0.041667  0.041667    128.000000
  0.125000  0.041667  0.041667    256.000000
  0.208333  0.041667  0.041667    256.000000
  0.291667  0.041667  0.041667    256.000000
  0.375000  0.041667  0.041667    256.000000
  0.458333  0.041667  0.041667    128.000000
 -0.041667  0.041667  0.041667     64.000000
  0.125000  0.125000  0.041667    128.000000
  0.208333  0.125000  0.041667    256.000000
  0.291667  0.125000  0.041667    256.000000
  0.375000  0.125000  0.041667    256.000000
  0.458333  0.125000  0.041667    256.000000
 -0.458333  0.125000  0.041667    256.000000
 -0.375000  0.125000  0.041667    256.000000
 -0.291667  0.125000  0.041667    256.000000
 -0.208333  0.125000  0.041667    128.000000
 -0.125000  0.125000  0.041667    128.000000
 -0.041667  0.125000  0.041667    128.000000
  0.208333  0.208333  0.041667    128.000000
  0.291667  0.208333  0.041667    256.000000
  0.375000  0.208333  0.041667    256.000000
  0.458333  0.208333  0.041667    256.000000
 -0.458333  0.208333  0.041667    256.000000
 -0.375000  0.208333  0.041667    256.000000
 -0.291667  0.208333  0.041667    128.000000
 -0.208333  0.208333  0.041667    128.000000
 -0.125000  0.208333  0.041667    256.000000
 -0.041667  0.208333  0.041667    128.000000
  0.291667  0.291667  0.041667    128.000000
  0.375000  0.291667  0.041667    256.000000
  0.458333  0.291667  0.041667    256.000000
 -0.458333  0.291667  0.041667    256.000000
 -0.375000  0.291667  0.041667    128.000000
 -0.291667  0.291667  0.041667    128.000000
 -0.208333  0.291667  0.041667    256.000000
 -0.125000  0.291667  0.041667    256.000000
 -0.041667  0.291667  0.041667    128.000000
  0.375000  0.375000  0.041667    128.000000
  0.458333  0.375000  0.041667    256.000000
 -0.458333  0.375000  0.041667    128.000000
 -0.375000  0.375000  0.041667    128.000000
 -0.291667  0.375000  0.041667    256.000000
 -0.208333  0.375000  0.041667    256.000000
 -0.125000  0.375000  0.041667    256.000000
 -0.041667  0.375000  0.041667    128.000000
  0.458333  0.458333  0.041667     64.000000
 -0.458333  0.458333  0.041667    128.000000
 -0.375000  0.458333  0.041667    256.000000
 -0.291667  0.458333  0.041667    256.000000
 -0.208333  0.458333  0.041667    256.000000
 -0.125000  0.458333  0.041667    256.000000
 -0.041667  0.458333  0.041667    128.000000
 -0.458333 -0.458333  0.041667    128.000000
 -0.375000 -0.458333  0.041667    256.000000
 -0.291667 -0.458333  0.041667    256.000000
 -0.208333 -0.458333  0.041667    256.000000
 -0.125000 -0.458333  0.041667    256.000000
 -0.041667 -0.458333  0.041667    128.000000
 -0.375000 -0.375000  0.041667    128.000000
 -0.291667 -0.375000  0.041667    256.000000
 -0.208333 -0.375000  0.041667    256.000000
 -0.125000 -0.375000  0.041667    256.000000
 -0.041667 -0.375000  0.041667    128.000000
 -0.291667 -0.291667  0.041667    128.000000
 -0.208333 -0.291667  0.041667    256.000000
 -0.125000 -0.291667  0.041667    256.000000
 -0.041667 -0.291667  0.041667    128.000000
 -0.208333 -0.208333  0.041667    128.000000
 -0.125000 -0.208333  0.041667    256.000000
 -0.041667 -0.208333  0.041667    128.000000
 -0.125000 -0.125000  0.041667    128.000000
 -0.041667 -0.125000  0.041667    128.000000
 -0.041667 -0.041667  0.041667     32.000000
  0.125000  0.125000  0.125000    128.000000
  0.208333  0.125000  0.125000    256.000000
  0.291667  0.125000  0.125000    256.000000
  0.375000  0.125000  0.125000    128.000000
 -0.125000  0.125000  0.125000     64.000000
  0.208333  0.208333  0.125000    128.000000
  0.291667  0.208333  0.125000    256.000000
  0.375000  0.208333  0.125000    256.000000
  0.458333  0.208333  0.125000    256.000000
 -0.458333  0.208333  0.125000    128.000000
 -0.208333  0.208333  0.125000    128.000000
 -0.125000  0.208333  0.125000    128.000000
  0.291667  0.291667  0.125000    128.000000
  0.375000  0.291667  0.125000    256.000000
  0.458333  0.291667  0.125000    128.000000
 -0.291667  0.291667  0.125000    128.000000
 -0.208333  0.291667  0.125000    256.000000
 -0.125000  0.291667  0.125000    128.000000
  0.375000  0.375000  0.125000     64.000000
 -0.375000  0.375000  0.125000    128.000000
 -0.291667  0.375000  0.125000    256.000000
 -0.208333  0.375000  0.125000    256.000000
 -0.125000  0.375000  0.125000    128.000000
 -0.458333  0.458333  0.125000    128.000000
 -0.375000  0.458333  0.125000    256.000000
 -0.291667  0.458333  0.125000    256.000000
 -0.208333  0.458333  0.125000    256.000000
 -0.125000  0.458333  0.125000    128.000000
 -0.458333 -0.458333  0.125000    128.000000
 -0.375000 -0.458333  0.125000    256.000000
 -0.291667 -0.458333  0.125000    256.000000
 -0.208333 -0.458333  0.125000    256.000000
 -0.125000 -0.458333  0.125000    128.000000
 -0.375000 -0.375000  0.125000    128.000000
 -0.291667 -0.375000  0.125000    256.000000
 -0.208333 -0.375000  0.125000    256.000000
 -0.125000 -0.375000  0.125000    128.000000
 -0.291667 -0.291667  0.125000    128.000000
 -0.208333 -0.291667  0.125000    256.000000
 -0.125000 -0.291667  0.125000    128.000000
 -0.208333 -0.208333  0.125000    128.000000
 -0.125000 -0.208333  0.125000    128.000000
 -0.125000 -0.125000  0.125000     32.000000
  0.208333  0.208333  0.208333    128.000000
  0.291667  0.208333  0.208333    128.000000
 -0.208333  0.208333  0.208333     64.000000
  0.291667  0.291667  0.208333     64.000000
 -0.291667  0.291667  0.208333    128.000000
 -0.208333  0.291667  0.208333    128.000000
 -0.375000  0.375000  0.208333    128.000000
 -0.291667  0.375000  0.208333    256.000000
 -0.208333  0.375000  0.208333    128.000000
 -0.458333  0.458333  0.208333    128.000000
 -0.375000  0.458333  0.208333    256.000000
 -0.291667  0.458333  0.208333    256.000000
 -0.208333  0.458333  0.208333    128.000000
 -0.458333 -0.458333  0.208333    128.000000
 -0.375000 -0.458333  0.208333    256.000000
 -0.291667 -0.458333  0.208333    256.000000
 -0.208333 -0.458333  0.208333    128.000000
 -0.375000 -0.375000  0.208333    128.000000
 -0.291667 -0.375000  0.208333    256.000000
 -0.208333 -0.375000  0.208333    128.000000
 -0.291667 -0.291667  0.208333    128.000000
 -0.208333 -0.291667  0.208333    128.000000
 -0.208333 -0.208333  0.208333     32.000000
 -0.291667  0.291667  0.291667     64.000000
 -0.375000  0.375000  0.291667    128.000000
 -0.291667  0.375000  0.291667    128.000000
 -0.458333  0.458333  0.291667    128.000000
 -0.375000  0.458333  0.291667    256.000000
 -0.291667  0.458333  0.291667    128.000000
 -0.458333 -0.458333  0.291667    128.000000
 -0.375000 -0.458333  0.291667    256.000000
 -0.291667 -0.458333  0.291667    128.000000
 -0.375000 -0.375000  0.291667    128.000000
 -0.291667 -0.375000  0.291667    128.000000
 -0.291667 -0.291667  0.291667     32.000000
 -0.375000  0.375000  0.375000     64.000000
 -0.458333  0.458333  0.375000    128.000000
 -0.375000  0.458333  0.375000    128.000000
 -0.458333 -0.458333  0.375000    128.000000
 -0.375000 -0.458333  0.375000    128.000000
 -0.375000 -0.375000  0.375000     32.000000
 -0.458333  0.458333  0.458333     64.000000
 -0.458333 -0.458333  0.458333     32.000000
 
 Following cartesian coordinates:
            Coordinates               Weight
  0.017007  0.017007  0.032705    128.000000
  0.017007  0.034014  0.065411    256.000000
  0.017007  0.051020  0.098116    256.000000
  0.017007  0.068027  0.130822    256.000000
  0.017007  0.085034  0.163527    256.000000
  0.017007  0.102041  0.196232    128.000000
  0.017007 -0.000000  0.000000     64.000000
  0.034014  0.034014  0.098116    128.000000
  0.034014  0.051020  0.130822    256.000000
  0.034014  0.068027  0.163527    256.000000
  0.034014  0.085034  0.196232    256.000000
  0.034014  0.102041  0.228938    256.000000
  0.034014 -0.085034 -0.130822    256.000000
  0.034014 -0.068027 -0.098116    256.000000
  0.034014 -0.051020 -0.065411    256.000000
  0.034014 -0.034014 -0.032705    128.000000
  0.034014 -0.017007  0.000000    128.000000
  0.034014  0.000000  0.032705    128.000000
  0.051020  0.051020  0.163527    128.000000
  0.051020  0.068027  0.196232    256.000000
  0.051020  0.085034  0.228938    256.000000
  0.051020  0.102041  0.261643    256.000000
  0.051020 -0.085034 -0.098116    256.000000
  0.051020 -0.068027 -0.065411    256.000000
  0.051020 -0.051020 -0.032705    128.000000
  0.051020 -0.034014 -0.000000    128.000000
  0.051020 -0.017007  0.032705    256.000000
  0.051020  0.000000  0.065411    128.000000
  0.068027  0.068027  0.228938    128.000000
  0.068027  0.085034  0.261643    256.000000
  0.068027  0.102041  0.294349    256.000000
  0.068027 -0.085034 -0.065411    256.000000
  0.068027 -0.068027 -0.032705    128.000000
  0.068027 -0.051020 -0.000000    128.000000
  0.068027 -0.034014  0.032705    256.000000
  0.068027 -0.017007  0.065411    256.000000
  0.068027  0.000000  0.098116    128.000000
  0.085034  0.085034  0.294349    128.000000
  0.085034  0.102041  0.327054    256.000000
  0.085034 -0.085034 -0.032705    128.000000
  0.085034 -0.068027  0.000000    128.000000
  0.085034 -0.051020  0.032705    256.000000
  0.085034 -0.034014  0.065411    256.000000
  0.085034 -0.017007  0.098116    256.000000
  0.085034  0.000000  0.130822    128.000000
  0.102041  0.102041  0.359759     64.000000
  0.102041 -0.085034 -0.000000    128.000000
  0.102041 -0.068027  0.032705    256.000000
  0.102041 -0.051020  0.065411    256.000000
  0.102041 -0.034014  0.098116    256.000000
  0.102041 -0.017007  0.130822    256.000000
  0.102041  0.000000  0.163527    128.000000
 -0.085034 -0.085034 -0.359759    128.000000
 -0.085034 -0.068027 -0.327054    256.000000
 -0.085034 -0.051020 -0.294349    256.000000
 -0.085034 -0.034014 -0.261643    256.000000
 -0.085034 -0.017007 -0.228938    256.000000
 -0.085034 -0.000000 -0.196232    128.000000
 -0.068027 -0.068027 -0.294349    128.000000
 -0.068027 -0.051020 -0.261643    256.000000
 -0.068027 -0.034014 -0.228938    256.000000
 -0.068027 -0.017007 -0.196232    256.000000
 -0.068027 -0.000000 -0.163527    128.000000
 -0.051020 -0.051020 -0.228938    128.000000
 -0.051020 -0.034014 -0.196232    256.000000
 -0.051020 -0.017007 -0.163527    256.000000
 -0.051020 -0.000000 -0.130822    128.000000
 -0.034014 -0.034014 -0.163527    128.000000
 -0.034014 -0.017007 -0.130822    256.000000
 -0.034014  0.000000 -0.098116    128.000000
 -0.017007 -0.017007 -0.098116    128.000000
 -0.017007 -0.000000 -0.065411    128.000000
 -0.000000  0.000000 -0.032705     32.000000
  0.051020  0.051020  0.098116    128.000000
  0.051020  0.068027  0.130822    256.000000
  0.051020  0.085034  0.163527    256.000000
  0.051020  0.102041  0.196232    128.000000
  0.051020  0.000000  0.000000     64.000000
  0.068027  0.068027  0.163527    128.000000
  0.068027  0.085034  0.196232    256.000000
  0.068027  0.102041  0.228938    256.000000
  0.068027  0.119048  0.261643    256.000000
  0.068027 -0.068027 -0.098116    128.000000
  0.068027 -0.017007 -0.000000    128.000000
  0.068027  0.000000  0.032705    128.000000
  0.085034  0.085034  0.228938    128.000000
  0.085034  0.102041  0.261643    256.000000
  0.085034  0.119048  0.294349    128.000000
  0.085034 -0.034014 -0.000000    128.000000
  0.085034 -0.017007  0.032705    256.000000
  0.085034  0.000000  0.065411    128.000000
  0.102041  0.102041  0.294349     64.000000
  0.102041 -0.051020  0.000000    128.000000
  0.102041 -0.034014  0.032705    256.000000
  0.102041 -0.017007  0.065411    256.000000
  0.102041  0.000000  0.098116    128.000000
  0.119048 -0.068027 -0.000000    128.000000
  0.119048 -0.051020  0.032705    256.000000
  0.119048 -0.034014  0.065411    256.000000
  0.119048 -0.017007  0.098116    256.000000
  0.119048  0.000000  0.130822    128.000000
 -0.068027 -0.068027 -0.359759    128.000000
 -0.068027 -0.051020 -0.327054    256.000000
 -0.068027 -0.034014 -0.294349    256.000000
 -0.068027 -0.017007 -0.261643    256.000000
 -0.068027  0.000000 -0.228938    128.000000
 -0.051020 -0.051020 -0.294349    128.000000
 -0.051020 -0.034014 -0.261643    256.000000
 -0.051020 -0.017007 -0.228938    256.000000
 -0.051020  0.000000 -0.196232    128.000000
 -0.034014 -0.034014 -0.228938    128.000000
 -0.034014 -0.017007 -0.196232    256.000000
 -0.034014  0.000000 -0.163527    128.000000
 -0.017007 -0.017007 -0.163527    128.000000
 -0.017007  0.000000 -0.130822    128.000000
 -0.000000  0.000000 -0.098116     32.000000
  0.085034  0.085034  0.163527    128.000000
  0.085034  0.102041  0.196232    128.000000
  0.085034 -0.000000 -0.000000     64.000000
  0.102041  0.102041  0.228938     64.000000
  0.102041 -0.017007  0.000000    128.000000
  0.102041 -0.000000  0.032705    128.000000
  0.119048 -0.034014  0.000000    128.000000
  0.119048 -0.017007  0.032705    256.000000
  0.119048 -0.000000  0.065411    128.000000
  0.136054 -0.051020 -0.000000    128.000000
  0.136054 -0.034014  0.032705    256.000000
  0.136054 -0.017007  0.065411    256.000000
  0.136054  0.000000  0.098116    128.000000
 -0.051020 -0.051020 -0.359759    128.000000
 -0.051020 -0.034014 -0.327054    256.000000
 -0.051020 -0.017007 -0.294349    256.000000
 -0.051020 -0.000000 -0.261643    128.000000
 -0.034014 -0.034014 -0.294349    128.000000
 -0.034014 -0.017007 -0.261643    256.000000
 -0.034014 -0.000000 -0.228938    128.000000
 -0.017007 -0.017007 -0.228938    128.000000
 -0.017007  0.000000 -0.196232    128.000000
 -0.000000  0.000000 -0.163527     32.000000
  0.119048  0.000000  0.000000     64.000000
  0.136054 -0.017007  0.000000    128.000000
  0.136054  0.000000  0.032705    128.000000
  0.153061 -0.034014 -0.000000    128.000000
  0.153061 -0.017007  0.032705    256.000000
  0.153061  0.000000  0.065411    128.000000
 -0.034014 -0.034014 -0.359759    128.000000
 -0.034014 -0.017007 -0.327054    256.000000
 -0.034014  0.000000 -0.294349    128.000000
 -0.017007 -0.017007 -0.294349    128.000000
 -0.017007  0.000000 -0.261643    128.000000
  0.000000  0.000000 -0.228938     32.000000
  0.153061  0.000000  0.000000     64.000000
  0.170068 -0.017007 -0.000000    128.000000
  0.170068  0.000000  0.032705    128.000000
 -0.017007 -0.017007 -0.359759    128.000000
 -0.017007  0.000000 -0.327054    128.000000
 -0.000000  0.000000 -0.294349     32.000000
  0.187075  0.000000 -0.000000     64.000000
  0.000000  0.000000 -0.359759     32.000000
 


--------------------------------------------------------------------------------------------------------




 Dimension of arrays:
   k-points           NKPTS =    159   k-points in BZ     NKDIM =    159   number of bands    NBANDS=      8
   number of dos      NEDOS =    301   number of ions     NIONS =      2
   non local maximal  LDIM  =      4   non local SUM 2l+1 LMDIM =      8
   total plane-waves  NPLWV =   5832
   max r-space proj   IRMAX =      1   max aug-charges    IRDMAX=   6573
   dimension x,y,z NGX =    18 NGY =   18 NGZ =   18
   dimension x,y,z NGXF=    36 NGYF=   36 NGZF=   36
   support grid    NGXF=    36 NGYF=   36 NGZF=   36
   ions per type =               2
   NGX,Y,Z   is equivalent  to a cutoff of   8.11,  8.11,  8.11 a.u.
   NGXF,Y,Z  is equivalent  to a cutoff of  16.21, 16.21, 16.21 a.u.

 SYSTEM =  unknown system                          
 POSCAR =  Si2                                     

 Startparameter for this run:
   NWRITE =      2    write-flag & timer
   PREC   = normal    normal or accurate (medium, high low for compatibility)
   ISTART =      1    job   : 0-new  1-cont  2-samecut
   ICHARG =      0    charge: 1-file 2-atom 10-const
   ISPIN  =      1    spin polarized calculation?
   LNONCOLLINEAR =      F non collinear calculations
   LSORBIT =      F    spin-orbit coupling
   INIWAV =      1    electr: 0-lowe 1-rand  2-diag
   LASPH  =      F    aspherical Exc in radial PAW
   METAGGA=      F    non-selfconsistent MetaGGA calc.

 Electronic Relaxation 1
   ENCUT  =  350.0 eV  25.72 Ry    5.07 a.u.   5.63  5.63  5.63*2*pi/ulx,y,z
   ENINI  =  350.0     initial cutoff
   ENAUG  =  322.1 eV  augmentation charge cutoff
   NELM   =     60;   NELMIN=  2; NELMDL=  0     # of ELM steps 
   EDIFF  = 0.4E-03   stopping-criterion for ELM
   LREAL  =      F    real-space projection
   NLSPLINE    = F    spline interpolate recip. space projectors
   LCOMPAT=      F    compatible to vasp.4.4
   GGA_COMPAT  = T    GGA compatible to vasp.4.4-vasp.4.6
   LMAXPAW     = -100 max onsite density
   LMAXMIX     =    2 max onsite mixed and CHGCAR
   VOSKOWN=      0    Vosko Wilk Nusair interpolation
   ROPT   =    0.00000
 Ionic relaxation
   EDIFFG = -.1E-01   stopping-criterion for IOM
   NSW    =     15    number of steps for IOM
   NBLOCK =      1;   KBLOCK =     15    inner block; outer block 
   IBRION =      2    ionic relax: 0-MD 1-quasi-New 2-CG
   NFREE  =      1    steps in history (QN), initial steepest desc. (CG)
   ISIF   =      2    stress and relaxation
   IWAVPR =     11    prediction:  0-non 1-charg 2-wave 3-comb
   ISYM   =      2    0-nonsym 1-usesym 2-fastsym
   LCORR  =      T    Harris-Foulkes like correction to forces

   POTIM  = 0.5000    time-step for ionic-motion
   TEIN   =    0.0    initial temperature
   TEBEG  =    0.0;   TEEND  =   0.0 temperature during run
   SMASS  =  -3.00    Nose mass-parameter (am)
   estimated Nose-frequenzy (Omega)   =  0.10E-29 period in steps =****** mass=  -0.311E-27a.u.
   SCALEE = 1.0000    scale energy and forces
   NPACO  =    256;   APACO  = 16.0  distance and # of slots for P.C.
   PSTRESS=    0.0 pullay stress

  Mass of Ions in am
   POMASS =  28.09
  Ionic Valenz
   ZVAL   =   4.00
  Atomic Wigner-Seitz radii
   RWIGS  =  -1.00
  virtual crystal weights 
   VCA    =   1.00
   NELECT =       8.0000    total number of electrons
   NUPDOWN=      -1.0000    fix difference up-down

 DOS related values:
   EMIN   =  10.00;   EMAX   =-10.00  energy-range for DOS
   EFERMI =   0.00
   ISMEAR =     0;   SIGMA  =   0.20  broadening in eV -4-tet -1-fermi 0-gaus

 Electronic relaxation 2 (details)
   IALGO  =     38    algorithm
   LDIAG  =      T    sub-space diagonalisation (order eigenvalues)
   LSUBROT=      F    optimize rotation matrix (better conditioning)
   TURBO    =      0    0=normal 1=particle mesh
   IRESTART =      0    0=no restart 2=restart with 2 vectors
   NREBOOT  =      0    no. of reboots
   NMIN     =      0    reboot dimension
   EREF     =   0.00    reference energy to select bands
   IMIX   =      4    mixing-type and parameters
     AMIX     =   0.40;   BMIX     =  1.00
     AMIX_MAG =   1.60;   BMIX_MAG =  1.00
     AMIN     =   0.10
     WC   =   100.;   INIMIX=   1;  MIXPRE=   1;  MAXMIX= -45

 Intra band minimization:
   WEIMIN = 0.0010     energy-eigenvalue tresh-hold
   EBREAK =  0.13E-04  absolut break condition
   DEPER  =   0.30     relativ break condition  

   TIME   =   0.40     timestep for ELM

  volume/ion in A,a.u.               =      15.29       103.21
  Fermi-wavevector in a.u.,A,eV,Ry     =   1.046930  1.978411 14.912834  1.096062
  Thomas-Fermi vector in A             =   2.181789
 
 Write flags
   LWAVE        =      T    write WAVECAR
   LDOWNSAMPLE  =      F    k-point downsampling of WAVECAR
   LCHARG       =      T    write CHGCAR
   LVTOT        =      F    write LOCPOT, total local potential
   LVHAR        =      F    write LOCPOT, Hartree potential only
   LELF         =      F    write electronic localiz. function (ELF)
   LORBIT       =      0    0 simple, 1 ext, 2 COOP (PROOUT), +10 PAW based schemes


 Dipole corrections
   LMONO  =      F    monopole corrections only (constant potential shift)
   LDIPOL =      F    correct potential (dipole corrections)
   IDIPOL =      0    1-x, 2-y, 3-z, 4-all directions 
   EPSILON=  1.0000000 bulk dielectric constant

 Exchange correlation treatment:
   GGA     =    --    GGA type
   LEXCH   =     8    internal setting for exchange type
   VOSKOWN=      0    Vosko Wilk Nusair interpolation
   LHFCALC =     F    Hartree Fock is set to
   LHFONE  =     F    Hartree Fock one center treatment
   AEXX    =    0.0000 exact exchange contribution

 Linear response parameters
   LEPSILON=     F    determine dielectric tensor
   LRPA    =     F    only Hartree local field effects (RPA)
   LNABLA  =     F    use nabla operator in PAW spheres
   LVEL    =     F    velocity operator in full k-point grid
   LINTERFAST=   F  fast interpolation
   KINTER  =     0    interpolate to denser k-point grid
   CSHIFT  =0.1000    complex shift for real part using Kramers Kronig
   OMEGAMAX=  -1.0    maximum frequency
   DEG_THRESHOLD= 0.2000000E-02 threshold for treating states as degnerate
   RTIME   =   -0.100 relaxation time in fs
  (WPLASMAI=    0.000 imaginary part of plasma frequency in eV, 0.658/RTIME)
   DFIELD  = 0.0000000 0.0000000 0.0000000 field for delta impulse in time
 
 Orbital magnetization related:
   ORBITALMAG=     F  switch on orbital magnetization
   LCHIMAG   =     F  perturbation theory with respect to B field
   DQ        =  0.001000  dq finite difference perturbation B field
   LLRAUG    =     F  two centre corrections for induced B field



--------------------------------------------------------------------------------------------------------


 conjugate gradient relaxation of ions
 charge density and potential will be updated during run
 non-spin polarized calculation
 Variant of blocked Davidson
 Davidson routine will perform the subspace rotation
 perform sub-space diagonalisation
    after iterative eigenvector-optimisation
 modified Broyden-mixing scheme, WC =      100.0
 initial mixing is a Kerker type mixing with AMIX =  0.4000 and BMIX =      1.0000
 Hartree-type preconditioning will be used
 using additional bands            4
 reciprocal scheme for non local part
 use partial core corrections
 calculate Harris-corrections to forces 
   (improved forces if not selfconsistent)
 use gradient corrections 
 use of overlap-Matrix (Vanderbilt PP)
 Gauss-broadening in eV      SIGMA  =   0.20


--------------------------------------------------------------------------------------------------------


  energy-cutoff  :      350.00
  volume of cell :       30.59
      direct lattice vectors                 reciprocal lattice vectors
    -2.450000000  2.450000000  1.274000000     0.000000000  0.204081633  0.392464678
     2.450000000 -2.450000000  1.274000000     0.204081633  0.000000000  0.392464678
     2.450000000  2.450000000 -1.274000000     0.204081633  0.204081633 -0.000000000

  length of vectors
     3.691622408  3.691622408  3.691622408     0.442354876  0.442354876  0.288615013


 
 old parameters found on file WAVECAR:
  energy-cutoff  :      350.00
  volume of cell :       30.59
      direct lattice vectors                 reciprocal lattice vectors
    -2.450000000  2.450000000  1.274000000     0.000000000  0.204081633  0.392464678
     2.450000000 -2.450000000  1.274000000     0.204081633  0.000000000  0.392464678
     2.450000000  2.450000000 -1.274000000     0.204081633  0.204081633 -0.000000000

  length of vectors

 
 k-points in units of 2pi/SCALE and weight: Automatic kpoint scheme                 
   0.01700680  0.01700680  0.03270539       0.005
   0.01700680  0.03401361  0.06541078       0.009
   0.01700680  0.05102041  0.09811617       0.009
   0.01700680  0.06802721  0.13082156       0.009
   0.01700680  0.08503401  0.16352695       0.009
   0.01700680  0.10204082  0.19623234       0.005
   0.01700680 -0.00000000 -0.00000000       0.002
   0.03401361  0.03401361  0.09811617       0.005
   0.03401361  0.05102041  0.13082156       0.009
   0.03401361  0.06802721  0.16352695       0.009
   0.03401361  0.08503401  0.19623234       0.009
   0.03401361  0.10204082  0.22893773       0.009
   0.03401361 -0.08503401 -0.13082156       0.009
   0.03401361 -0.06802721 -0.09811617       0.009
   0.03401361 -0.05102041 -0.06541078       0.009
   0.03401361 -0.03401361 -0.03270539       0.005
   0.03401361 -0.01700680 -0.00000000       0.005
   0.03401361  0.00000000  0.03270539       0.005
   0.05102041  0.05102041  0.16352695       0.005
   0.05102041  0.06802721  0.19623234       0.009
   0.05102041  0.08503401  0.22893773       0.009
   0.05102041  0.10204082  0.26164312       0.009
   0.05102041 -0.08503401 -0.09811617       0.009
   0.05102041 -0.06802721 -0.06541078       0.009
   0.05102041 -0.05102041 -0.03270539       0.005
   0.05102041 -0.03401361 -0.00000000       0.005
   0.05102041 -0.01700680  0.03270539       0.009
   0.05102041  0.00000000  0.06541078       0.005
   0.06802721  0.06802721  0.22893773       0.005
   0.06802721  0.08503401  0.26164312       0.009
   0.06802721  0.10204082  0.29434851       0.009
   0.06802721 -0.08503401 -0.06541078       0.009
   0.06802721 -0.06802721 -0.03270539       0.005
   0.06802721 -0.05102041 -0.00000000       0.005
   0.06802721 -0.03401361  0.03270539       0.009
   0.06802721 -0.01700680  0.06541078       0.009
   0.06802721  0.00000000  0.09811617       0.005
   0.08503401  0.08503401  0.29434851       0.005
   0.08503401  0.10204082  0.32705390       0.009
   0.08503401 -0.08503401 -0.03270539       0.005
   0.08503401 -0.06802721  0.00000000       0.005
   0.08503401 -0.05102041  0.03270539       0.009
   0.08503401 -0.03401361  0.06541078       0.009
   0.08503401 -0.01700680  0.09811617       0.009
   0.08503401  0.00000000  0.13082156       0.005
   0.10204082  0.10204082  0.35975929       0.002
   0.10204082 -0.08503401 -0.00000000       0.005
   0.10204082 -0.06802721  0.03270539       0.009
   0.10204082 -0.05102041  0.06541078       0.009
   0.10204082 -0.03401361  0.09811617       0.009
   0.10204082 -0.01700680  0.13082156       0.009
   0.10204082  0.00000000  0.16352695       0.005
  -0.08503401 -0.08503401 -0.35975929       0.005
  -0.08503401 -0.06802721 -0.32705390       0.009
  -0.08503401 -0.05102041 -0.29434851       0.009
  -0.08503401 -0.03401361 -0.26164312       0.009
  -0.08503401 -0.01700680 -0.22893773       0.009
  -0.08503401 -0.00000000 -0.19623234       0.005
  -0.06802721 -0.06802721 -0.29434851       0.005
  -0.06802721 -0.05102041 -0.26164312       0.009
  -0.06802721 -0.03401361 -0.22893773       0.009
  -0.06802721 -0.01700680 -0.19623234       0.009
  -0.06802721 -0.00000000 -0.16352695       0.005
  -0.05102041 -0.05102041 -0.22893773       0.005
  -0.05102041 -0.03401361 -0.19623234       0.009
  -0.05102041 -0.01700680 -0.16352695       0.009
  -0.05102041 -0.00000000 -0.13082156       0.005
  -0.03401361 -0.03401361 -0.16352695       0.005
  -0.03401361 -0.01700680 -0.13082156       0.009
  -0.03401361 -0.00000000 -0.09811617       0.005
  -0.01700680 -0.01700680 -0.09811617       0.005
  -0.01700680 -0.00000000 -0.06541078       0.005
   0.00000000  0.00000000 -0.03270539       0.001
   0.05102041  0.05102041  0.09811617       0.005
   0.05102041  0.06802721  0.13082156       0.009
   0.05102041  0.08503401  0.16352695       0.009
   0.05102041  0.10204082  0.19623234       0.005
   0.05102041  0.00000000 -0.00000000       0.002
   0.06802721  0.06802721  0.16352695       0.005
   0.06802721  0.08503401  0.19623234       0.009
   0.06802721  0.10204082  0.22893773       0.009
   0.06802721  0.11904762  0.26164312       0.009
   0.06802721 -0.06802721 -0.09811617       0.005
   0.06802721 -0.01700680 -0.00000000       0.005
   0.06802721  0.00000000  0.03270539       0.005
   0.08503401  0.08503401  0.22893773       0.005
   0.08503401  0.10204082  0.26164312       0.009
   0.08503401  0.11904762  0.29434851       0.005
   0.08503401 -0.03401361 -0.00000000       0.005
   0.08503401 -0.01700680  0.03270539       0.009
   0.08503401  0.00000000  0.06541078       0.005
   0.10204082  0.10204082  0.29434851       0.002
   0.10204082 -0.05102041  0.00000000       0.005
   0.10204082 -0.03401361  0.03270539       0.009
   0.10204082 -0.01700680  0.06541078       0.009
   0.10204082  0.00000000  0.09811617       0.005
   0.11904762 -0.06802721 -0.00000000       0.005
   0.11904762 -0.05102041  0.03270539       0.009
   0.11904762 -0.03401361  0.06541078       0.009
   0.11904762 -0.01700680  0.09811617       0.009
   0.11904762  0.00000000  0.13082156       0.005
  -0.06802721 -0.06802721 -0.35975929       0.005
  -0.06802721 -0.05102041 -0.32705390       0.009
  -0.06802721 -0.03401361 -0.29434851       0.009
  -0.06802721 -0.01700680 -0.26164312       0.009
  -0.06802721  0.00000000 -0.22893773       0.005
  -0.05102041 -0.05102041 -0.29434851       0.005
  -0.05102041 -0.03401361 -0.26164312       0.009
  -0.05102041 -0.01700680 -0.22893773       0.009
  -0.05102041  0.00000000 -0.19623234       0.005
  -0.03401361 -0.03401361 -0.22893773       0.005
  -0.03401361 -0.01700680 -0.19623234       0.009
  -0.03401361 -0.00000000 -0.16352695       0.005
  -0.01700680 -0.01700680 -0.16352695       0.005
  -0.01700680 -0.00000000 -0.13082156       0.005
   0.00000000  0.00000000 -0.09811617       0.001
   0.08503401  0.08503401  0.16352695       0.005
   0.08503401  0.10204082  0.19623234       0.005
   0.08503401 -0.00000000 -0.00000000       0.002
   0.10204082  0.10204082  0.22893773       0.002
   0.10204082 -0.01700680 -0.00000000       0.005
   0.10204082 -0.00000000  0.03270539       0.005
   0.11904762 -0.03401361  0.00000000       0.005
   0.11904762 -0.01700680  0.03270539       0.009
   0.11904762 -0.00000000  0.06541078       0.005
   0.13605442 -0.05102041 -0.00000000       0.005
   0.13605442 -0.03401361  0.03270539       0.009
   0.13605442 -0.01700680  0.06541078       0.009
   0.13605442 -0.00000000  0.09811617       0.005
  -0.05102041 -0.05102041 -0.35975929       0.005
  -0.05102041 -0.03401361 -0.32705390       0.009
  -0.05102041 -0.01700680 -0.29434851       0.009
  -0.05102041 -0.00000000 -0.26164312       0.005
  -0.03401361 -0.03401361 -0.29434851       0.005
  -0.03401361 -0.01700680 -0.26164312       0.009
  -0.03401361 -0.00000000 -0.22893773       0.005
  -0.01700680 -0.01700680 -0.22893773       0.005
  -0.01700680 -0.00000000 -0.19623234       0.005
   0.00000000  0.00000000 -0.16352695       0.001
   0.11904762  0.00000000 -0.00000000       0.002
   0.13605442 -0.01700680  0.00000000       0.005
   0.13605442  0.00000000  0.03270539       0.005
   0.15306122 -0.03401361 -0.00000000       0.005
   0.15306122 -0.01700680  0.03270539       0.009
   0.15306122  0.00000000  0.06541078       0.005
  -0.03401361 -0.03401361 -0.35975929       0.005
  -0.03401361 -0.01700680 -0.32705390       0.009
  -0.03401361 -0.00000000 -0.29434851       0.005
  -0.01700680 -0.01700680 -0.29434851       0.005
  -0.01700680  0.00000000 -0.26164312       0.005
   0.00000000  0.00000000 -0.22893773       0.001
   0.15306122  0.00000000  0.00000000       0.002
   0.17006803 -0.01700680 -0.00000000       0.005
   0.17006803  0.00000000  0.03270539       0.005
  -0.01700680 -0.01700680 -0.35975929       0.005
  -0.01700680  0.00000000 -0.32705390       0.005
   0.00000000 -0.00000000 -0.29434851       0.001
   0.18707483  0.00000000 -0.00000000       0.002
   0.00000000 -0.00000000 -0.35975929       0.001
 
 k-points in reciprocal lattice and weights: Automatic kpoint scheme                 
   0.04166667  0.04166667  0.04166667       0.005
   0.12500000  0.04166667  0.04166667       0.009
   0.20833333  0.04166667  0.04166667       0.009
   0.29166667  0.04166667  0.04166667       0.009
   0.37500000  0.04166667  0.04166667       0.009
   0.45833333  0.04166667  0.04166667       0.005
  -0.04166667  0.04166667  0.04166667       0.002
   0.12500000  0.12500000  0.04166667       0.005
   0.20833333  0.12500000  0.04166667       0.009
   0.29166667  0.12500000  0.04166667       0.009
   0.37500000  0.12500000  0.04166667       0.009
   0.45833333  0.12500000  0.04166667       0.009
  -0.45833333  0.12500000  0.04166667       0.009
  -0.37500000  0.12500000  0.04166667       0.009
  -0.29166667  0.12500000  0.04166667       0.009
  -0.20833333  0.12500000  0.04166667       0.005
  -0.12500000  0.12500000  0.04166667       0.005
  -0.04166667  0.12500000  0.04166667       0.005
   0.20833333  0.20833333  0.04166667       0.005
   0.29166667  0.20833333  0.04166667       0.009
   0.37500000  0.20833333  0.04166667       0.009
   0.45833333  0.20833333  0.04166667       0.009
  -0.45833333  0.20833333  0.04166667       0.009
  -0.37500000  0.20833333  0.04166667       0.009
  -0.29166667  0.20833333  0.04166667       0.005
  -0.20833333  0.20833333  0.04166667       0.005
  -0.12500000  0.20833333  0.04166667       0.009
  -0.04166667  0.20833333  0.04166667       0.005
   0.29166667  0.29166667  0.04166667       0.005
   0.37500000  0.29166667  0.04166667       0.009
   0.45833333  0.29166667  0.04166667       0.009
  -0.45833333  0.29166667  0.04166667       0.009
  -0.37500000  0.29166667  0.04166667       0.005
  -0.29166667  0.29166667  0.04166667       0.005
  -0.20833333  0.29166667  0.04166667       0.009
  -0.12500000  0.29166667  0.04166667       0.009
  -0.04166667  0.29166667  0.04166667       0.005
   0.37500000  0.37500000  0.04166667       0.005
   0.45833333  0.37500000  0.04166667       0.009
  -0.45833333  0.37500000  0.04166667       0.005
  -0.37500000  0.37500000  0.04166667       0.005
  -0.29166667  0.37500000  0.04166667       0.009
  -0.20833333  0.37500000  0.04166667       0.009
  -0.12500000  0.37500000  0.04166667       0.009
  -0.04166667  0.37500000  0.04166667       0.005
   0.45833333  0.45833333  0.04166667       0.002
  -0.45833333  0.45833333  0.04166667       0.005
  -0.37500000  0.45833333  0.04166667       0.009
  -0.29166667  0.45833333  0.04166667       0.009
  -0.20833333  0.45833333  0.04166667       0.009
  -0.12500000  0.45833333  0.04166667       0.009
  -0.04166667  0.45833333  0.04166667       0.005
  -0.45833333 -0.45833333  0.04166667       0.005
  -0.37500000 -0.45833333  0.04166667       0.009
  -0.29166667 -0.45833333  0.04166667       0.009
  -0.20833333 -0.45833333  0.04166667       0.009
  -0.12500000 -0.45833333  0.04166667       0.009
  -0.04166667 -0.45833333  0.04166667       0.005
  -0.37500000 -0.37500000  0.04166667       0.005
  -0.29166667 -0.37500000  0.04166667       0.009
  -0.20833333 -0.37500000  0.04166667       0.009
  -0.12500000 -0.37500000  0.04166667       0.009
  -0.04166667 -0.37500000  0.04166667       0.005
  -0.29166667 -0.29166667  0.04166667       0.005
  -0.20833333 -0.29166667  0.04166667       0.009
  -0.12500000 -0.29166667  0.04166667       0.009
  -0.04166667 -0.29166667  0.04166667       0.005
  -0.20833333 -0.20833333  0.04166667       0.005
  -0.12500000 -0.20833333  0.04166667       0.009
  -0.04166667 -0.20833333  0.04166667       0.005
  -0.12500000 -0.12500000  0.04166667       0.005
  -0.04166667 -0.12500000  0.04166667       0.005
  -0.04166667 -0.04166667  0.04166667       0.001
   0.12500000  0.12500000  0.12500000       0.005
   0.20833333  0.12500000  0.12500000       0.009
   0.29166667  0.12500000  0.12500000       0.009
   0.37500000  0.12500000  0.12500000       0.005
  -0.12500000  0.12500000  0.12500000       0.002
   0.20833333  0.20833333  0.12500000       0.005
   0.29166667  0.20833333  0.12500000       0.009
   0.37500000  0.20833333  0.12500000       0.009
   0.45833333  0.20833333  0.12500000       0.009
  -0.45833333  0.20833333  0.12500000       0.005
  -0.20833333  0.20833333  0.12500000       0.005
  -0.12500000  0.20833333  0.12500000       0.005
   0.29166667  0.29166667  0.12500000       0.005
   0.37500000  0.29166667  0.12500000       0.009
   0.45833333  0.29166667  0.12500000       0.005
  -0.29166667  0.29166667  0.12500000       0.005
  -0.20833333  0.29166667  0.12500000       0.009
  -0.12500000  0.29166667  0.12500000       0.005
   0.37500000  0.37500000  0.12500000       0.002
  -0.37500000  0.37500000  0.12500000       0.005
  -0.29166667  0.37500000  0.12500000       0.009
  -0.20833333  0.37500000  0.12500000       0.009
  -0.12500000  0.37500000  0.12500000       0.005
  -0.45833333  0.45833333  0.12500000       0.005
  -0.37500000  0.45833333  0.12500000       0.009
  -0.29166667  0.45833333  0.12500000       0.009
  -0.20833333  0.45833333  0.12500000       0.009
  -0.12500000  0.45833333  0.12500000       0.005
  -0.45833333 -0.45833333  0.12500000       0.005
  -0.37500000 -0.45833333  0.12500000       0.009
  -0.29166667 -0.45833333  0.12500000       0.009
  -0.20833333 -0.45833333  0.12500000       0.009
  -0.12500000 -0.45833333  0.12500000       0.005
  -0.37500000 -0.37500000  0.12500000       0.005
  -0.29166667 -0.37500000  0.12500000       0.009
  -0.20833333 -0.37500000  0.12500000       0.009
  -0.12500000 -0.37500000  0.12500000       0.005
  -0.29166667 -0.29166667  0.12500000       0.005
  -0.20833333 -0.29166667  0.12500000       0.009
  -0.12500000 -0.29166667  0.12500000       0.005
  -0.20833333 -0.20833333  0.12500000       0.005
  -0.12500000 -0.20833333  0.12500000       0.005
  -0.12500000 -0.12500000  0.12500000       0.001
   0.20833333  0.20833333  0.20833333       0.005
   0.29166667  0.20833333  0.20833333       0.005
  -0.20833333  0.20833333  0.20833333       0.002
   0.29166667  0.29166667  0.20833333       0.002
  -0.29166667  0.29166667  0.20833333       0.005
  -0.20833333  0.29166667  0.20833333       0.005
  -0.37500000  0.37500000  0.20833333       0.005
  -0.29166667  0.37500000  0.20833333       0.009
  -0.20833333  0.37500000  0.20833333       0.005
  -0.45833333  0.45833333  0.20833333       0.005
  -0.37500000  0.45833333  0.20833333       0.009
  -0.29166667  0.45833333  0.20833333       0.009
  -0.20833333  0.45833333  0.20833333       0.005
  -0.45833333 -0.45833333  0.20833333       0.005
  -0.37500000 -0.45833333  0.20833333       0.009
  -0.29166667 -0.45833333  0.20833333       0.009
  -0.20833333 -0.45833333  0.20833333       0.005
  -0.37500000 -0.37500000  0.20833333       0.005
  -0.29166667 -0.37500000  0.20833333       0.009
  -0.20833333 -0.37500000  0.20833333       0.005
  -0.29166667 -0.29166667  0.20833333       0.005
  -0.20833333 -0.29166667  0.20833333       0.005
  -0.20833333 -0.20833333  0.20833333       0.001
  -0.29166667  0.29166667  0.29166667       0.002
  -0.37500000  0.37500000  0.29166667       0.005
  -0.29166667  0.37500000  0.29166667       0.005
  -0.45833333  0.45833333  0.29166667       0.005
  -0.37500000  0.45833333  0.29166667       0.009
  -0.29166667  0.45833333  0.29166667       0.005
  -0.45833333 -0.45833333  0.29166667       0.005
  -0.37500000 -0.45833333  0.29166667       0.009
  -0.29166667 -0.45833333  0.29166667       0.005
  -0.37500000 -0.37500000  0.29166667       0.005
  -0.29166667 -0.37500000  0.29166667       0.005
  -0.29166667 -0.29166667  0.29166667       0.001
  -0.37500000  0.37500000  0.37500000       0.002
  -0.45833333  0.45833333  0.37500000       0.005
  -0.37500000  0.45833333  0.37500000       0.005
  -0.45833333 -0.45833333  0.37500000       0.005
  -0.37500000 -0.45833333  0.37500000       0.005
  -0.37500000 -0.37500000  0.37500000       0.001
  -0.45833333  0.45833333  0.45833333       0.002
  -0.45833333 -0.45833333  0.45833333       0.001
 
 position of ions in fractional coordinates (direct lattice) 
   0.25000000  0.75000000  0.50000000
   0.00000000  0.00000000  0.00000000
 
 position of ions in cartesian coordinates  (Angst):
   2.45000000  0.00000000  0.63700000
   0.00000000  0.00000000  0.00000000
 


--------------------------------------------------------------------------------------------------------


 k-point  1 :   0.0417 0.0417 0.0417  plane waves:     457
 k-point  2 :   0.1250 0.0417 0.0417  plane waves:     461
 k-point  3 :   0.2083 0.0417 0.0417  plane waves:     467
 k-point  4 :   0.2917 0.0417 0.0417  plane waves:     460
 k-point  5 :   0.3750 0.0417 0.0417  plane waves:     455
 k-point  6 :   0.4583 0.0417 0.0417  plane waves:     458
 k-point  7 :  -0.0417 0.0417 0.0417  plane waves:     455
 k-point  8 :   0.1250 0.1250 0.0417  plane waves:     464
 k-point  9 :   0.2083 0.1250 0.0417  plane waves:     458
 k-point 10 :   0.2917 0.1250 0.0417  plane waves:     458
 k-point 11 :   0.3750 0.1250 0.0417  plane waves:     461
 k-point 12 :   0.4583 0.1250 0.0417  plane waves:     459
 k-point 13 :  -0.4583 0.1250 0.0417  plane waves:     458
 k-point 14 :  -0.3750 0.1250 0.0417  plane waves:     460
 k-point 15 :  -0.2917 0.1250 0.0417  plane waves:     459
 k-point 16 :  -0.2083 0.1250 0.0417  plane waves:     459
 k-point 17 :  -0.1250 0.1250 0.0417  plane waves:     453
 k-point 18 :  -0.0417 0.1250 0.0417  plane waves:     460
 k-point 19 :   0.2083 0.2083 0.0417  plane waves:     459
 k-point 20 :   0.2917 0.2083 0.0417  plane waves:     460
 k-point 21 :   0.3750 0.2083 0.0417  plane waves:     460
 k-point 22 :   0.4583 0.2083 0.0417  plane waves:     458
 k-point 23 :  -0.4583 0.2083 0.0417  plane waves:     458
 k-point 24 :  -0.3750 0.2083 0.0417  plane waves:     453
 k-point 25 :  -0.2917 0.2083 0.0417  plane waves:     455
 k-point 26 :  -0.2083 0.2083 0.0417  plane waves:     454
 k-point 27 :  -0.1250 0.2083 0.0417  plane waves:     458
 k-point 28 :  -0.0417 0.2083 0.0417  plane waves:     457
 k-point 29 :   0.2917 0.2917 0.0417  plane waves:     457
 k-point 30 :   0.3750 0.2917 0.0417  plane waves:     454
 k-point 31 :   0.4583 0.2917 0.0417  plane waves:     452
 k-point 32 :  -0.4583 0.2917 0.0417  plane waves:     450
 k-point 33 :  -0.3750 0.2917 0.0417  plane waves:     452
 k-point 34 :  -0.2917 0.2917 0.0417  plane waves:     453
 k-point 35 :  -0.2083 0.2917 0.0417  plane waves:     454
 k-point 36 :  -0.1250 0.2917 0.0417  plane waves:     459
 k-point 37 :  -0.0417 0.2917 0.0417  plane waves:     464
 k-point 38 :   0.3750 0.3750 0.0417  plane waves:     452
 k-point 39 :   0.4583 0.3750 0.0417  plane waves:     451
 k-point 40 :  -0.4583 0.3750 0.0417  plane waves:     447
 k-point 41 :  -0.3750 0.3750 0.0417  plane waves:     450
 k-point 42 :  -0.2917 0.3750 0.0417  plane waves:     451
 k-point 43 :  -0.2083 0.3750 0.0417  plane waves:     450
 k-point 44 :  -0.1250 0.3750 0.0417  plane waves:     454
 k-point 45 :  -0.0417 0.3750 0.0417  plane waves:     453
 k-point 46 :   0.4583 0.4583 0.0417  plane waves:     444
 k-point 47 :  -0.4583 0.4583 0.0417  plane waves:     445
 k-point 48 :  -0.3750 0.4583 0.0417  plane waves:     447
 k-point 49 :  -0.2917 0.4583 0.0417  plane waves:     449
 k-point 50 :  -0.2083 0.4583 0.0417  plane waves:     453
 k-point 51 :  -0.1250 0.4583 0.0417  plane waves:     453
 k-point 52 :  -0.0417 0.4583 0.0417  plane waves:     453
 k-point 53 :  -0.4583-0.4583 0.0417  plane waves:     447
 k-point 54 :  -0.3750-0.4583 0.0417  plane waves:     447
 k-point 55 :  -0.2917-0.4583 0.0417  plane waves:     451
 k-point 56 :  -0.2083-0.4583 0.0417  plane waves:     455
 k-point 57 :  -0.1250-0.4583 0.0417  plane waves:     459
 k-point 58 :  -0.0417-0.4583 0.0417  plane waves:     456
 k-point 59 :  -0.3750-0.3750 0.0417  plane waves:     448
 k-point 60 :  -0.2917-0.3750 0.0417  plane waves:     455
 k-point 61 :  -0.2083-0.3750 0.0417  plane waves:     459
 k-point 62 :  -0.1250-0.3750 0.0417  plane waves:     454
 k-point 63 :  -0.0417-0.3750 0.0417  plane waves:     458
 k-point 64 :  -0.2917-0.2917 0.0417  plane waves:     459
 k-point 65 :  -0.2083-0.2917 0.0417  plane waves:     457
 k-point 66 :  -0.1250-0.2917 0.0417  plane waves:     456
 k-point 67 :  -0.0417-0.2917 0.0417  plane waves:     462
 k-point 68 :  -0.2083-0.2083 0.0417  plane waves:     454
 k-point 69 :  -0.1250-0.2083 0.0417  plane waves:     461
 k-point 70 :  -0.0417-0.2083 0.0417  plane waves:     463
 k-point 71 :  -0.1250-0.1250 0.0417  plane waves:     462
 k-point 72 :  -0.0417-0.1250 0.0417  plane waves:     460
 k-point 73 :  -0.0417-0.0417 0.0417  plane waves:     443
 k-point 74 :   0.1250 0.1250 0.1250  plane waves:     462
 k-point 75 :   0.2083 0.1250 0.1250  plane waves:     460
 k-point 76 :   0.2917 0.1250 0.1250  plane waves:     462
 k-point 77 :   0.3750 0.1250 0.1250  plane waves:     456
 k-point 78 :  -0.1250 0.1250 0.1250  plane waves:     457
 k-point 79 :   0.2083 0.2083 0.1250  plane waves:     462
 k-point 80 :   0.2917 0.2083 0.1250  plane waves:     458
 k-point 81 :   0.3750 0.2083 0.1250  plane waves:     458
 k-point 82 :   0.4583 0.2083 0.1250  plane waves:     462
 k-point 83 :  -0.4583 0.2083 0.1250  plane waves:     457
 k-point 84 :  -0.2083 0.2083 0.1250  plane waves:     457
 k-point 85 :  -0.1250 0.2083 0.1250  plane waves:     453
 k-point 86 :   0.2917 0.2917 0.1250  plane waves:     455
 k-point 87 :   0.3750 0.2917 0.1250  plane waves:     456
 k-point 88 :   0.4583 0.2917 0.1250  plane waves:     460
 k-point 89 :  -0.2917 0.2917 0.1250  plane waves:     452
 k-point 90 :  -0.2083 0.2917 0.1250  plane waves:     452
 k-point 91 :  -0.1250 0.2917 0.1250  plane waves:     458
 k-point 92 :   0.3750 0.3750 0.1250  plane waves:     456
 k-point 93 :  -0.3750 0.3750 0.1250  plane waves:     446
 k-point 94 :  -0.2917 0.3750 0.1250  plane waves:     447
 k-point 95 :  -0.2083 0.3750 0.1250  plane waves:     453
 k-point 96 :  -0.1250 0.3750 0.1250  plane waves:     453
 k-point 97 :  -0.4583 0.4583 0.1250  plane waves:     446
 k-point 98 :  -0.3750 0.4583 0.1250  plane waves:     450
 k-point 99 :  -0.2917 0.4583 0.1250  plane waves:     448
 k-point ** :  -0.2083 0.4583 0.1250  plane waves:     452
 k-point ** :  -0.1250 0.4583 0.1250  plane waves:     450
 k-point ** :  -0.4583-0.4583 0.1250  plane waves:     449
 k-point ** :  -0.3750-0.4583 0.1250  plane waves:     449
 k-point ** :  -0.2917-0.4583 0.1250  plane waves:     449
 k-point ** :  -0.2083-0.4583 0.1250  plane waves:     452
 k-point ** :  -0.1250-0.4583 0.1250  plane waves:     456
 k-point ** :  -0.3750-0.3750 0.1250  plane waves:     449
 k-point ** :  -0.2917-0.3750 0.1250  plane waves:     458
 k-point ** :  -0.2083-0.3750 0.1250  plane waves:     458
 k-point ** :  -0.1250-0.3750 0.1250  plane waves:     459
 k-point ** :  -0.2917-0.2917 0.1250  plane waves:     454
 k-point ** :  -0.2083-0.2917 0.1250  plane waves:     459
 k-point ** :  -0.1250-0.2917 0.1250  plane waves:     458
 k-point ** :  -0.2083-0.2083 0.1250  plane waves:     459
 k-point ** :  -0.1250-0.2083 0.1250  plane waves:     466
 k-point ** :  -0.1250-0.1250 0.1250  plane waves:     460
 k-point ** :   0.2083 0.2083 0.2083  plane waves:     458
 k-point ** :   0.2917 0.2083 0.2083  plane waves:     454
 k-point ** :  -0.2083 0.2083 0.2083  plane waves:     453
 k-point ** :   0.2917 0.2917 0.2083  plane waves:     458
 k-point ** :  -0.2917 0.2917 0.2083  plane waves:     450
 k-point ** :  -0.2083 0.2917 0.2083  plane waves:     454
 k-point ** :  -0.3750 0.3750 0.2083  plane waves:     449
 k-point ** :  -0.2917 0.3750 0.2083  plane waves:     448
 k-point ** :  -0.2083 0.3750 0.2083  plane waves:     453
 k-point ** :  -0.4583 0.4583 0.2083  plane waves:     451
 k-point ** :  -0.3750 0.4583 0.2083  plane waves:     450
 k-point ** :  -0.2917 0.4583 0.2083  plane waves:     450
 k-point ** :  -0.2083 0.4583 0.2083  plane waves:     454
 k-point ** :  -0.4583-0.4583 0.2083  plane waves:     449
 k-point ** :  -0.3750-0.4583 0.2083  plane waves:     449
 k-point ** :  -0.2917-0.4583 0.2083  plane waves:     449
 k-point ** :  -0.2083-0.4583 0.2083  plane waves:     454
 k-point ** :  -0.3750-0.3750 0.2083  plane waves:     450
 k-point ** :  -0.2917-0.3750 0.2083  plane waves:     456
 k-point ** :  -0.2083-0.3750 0.2083  plane waves:     455
 k-point ** :  -0.2917-0.2917 0.2083  plane waves:     454
 k-point ** :  -0.2083-0.2917 0.2083  plane waves:     460
 k-point ** :  -0.2083-0.2083 0.2083  plane waves:     460
 k-point ** :  -0.2917 0.2917 0.2917  plane waves:     450
 k-point ** :  -0.3750 0.3750 0.2917  plane waves:     448
 k-point ** :  -0.2917 0.3750 0.2917  plane waves:     448
 k-point ** :  -0.4583 0.4583 0.2917  plane waves:     449
 k-point ** :  -0.3750 0.4583 0.2917  plane waves:     448
 k-point ** :  -0.2917 0.4583 0.2917  plane waves:     449
 k-point ** :  -0.4583-0.4583 0.2917  plane waves:     454
 k-point ** :  -0.3750-0.4583 0.2917  plane waves:     455
 k-point ** :  -0.2917-0.4583 0.2917  plane waves:     453
 k-point ** :  -0.3750-0.3750 0.2917  plane waves:     455
 k-point ** :  -0.2917-0.3750 0.2917  plane waves:     454
 k-point ** :  -0.2917-0.2917 0.2917  plane waves:     452
 k-point ** :  -0.3750 0.3750 0.3750  plane waves:     450
 k-point ** :  -0.4583 0.4583 0.3750  plane waves:     454
 k-point ** :  -0.3750 0.4583 0.3750  plane waves:     456
 k-point ** :  -0.4583-0.4583 0.3750  plane waves:     457
 k-point ** :  -0.3750-0.4583 0.3750  plane waves:     458
 k-point ** :  -0.3750-0.3750 0.3750  plane waves:     460
 k-point ** :  -0.4583 0.4583 0.4583  plane waves:     460
 k-point ** :  -0.4583-0.4583 0.4583  plane waves:     460

 maximum and minimum number of plane-waves per node :       467      443

 maximum number of plane-waves:       467
 maximum index in each direction: 
   IXMAX=    6   IYMAX=    6   IZMAX=    5
   IXMIN=   -6   IYMIN=   -6   IZMIN=   -6


 serial   3D FFT for wavefunctions
 parallel 3D FFT for charge:
    minimum data exchange during FFTs selected (reduces bandwidth)


 total amount of memory used by VASP MPI-rank0    36873. kBytes
=======================================================================

   base      :      30000. kBytes
   nonl-proj :       4818. kBytes
   fftplans  :        247. kBytes
   grid      :        561. kBytes
   one-center:          6. kBytes
   wavefun   :       1241. kBytes
 
     INWAV:  cpu time    0.4640: real time    0.7320
 Broyden mixing: mesh for mixing (old mesh)
   NGX = 11   NGY = 11   NGZ = 11
  (NGX  = 36   NGY  = 36   NGZ  = 36)
  gives a total of   1331 points

 charge density for first step will be calculated from the start-wavefunctions


--------------------------------------------------------------------------------------------------------


 Maximum index for augmentation-charges          911 (set IRDMAX)


--------------------------------------------------------------------------------------------------------


 initial charge from wavefunction
 First call to EWALD:  gamma=   0.567
 Maximum number of real-space cells 4x 4x 3
 Maximum number of reciprocal cells 3x 3x 3

    FEWALD:  cpu time    0.0080: real time    0.0076


--------------------------------------- Iteration      1(   1)  ---------------------------------------


    POTLOK:  cpu time    0.0360: real time    0.0506
    SETDIJ:  cpu time    0.0080: real time    0.0095
     EDDAV:  cpu time    1.4040: real time    1.4102
       DOS:  cpu time    0.0040: real time    0.0082
    CHARGE:  cpu time    0.1400: real time    0.1396
    MIXING:  cpu time    0.0040: real time    0.0024
    --------------------------------------------
      LOOP:  cpu time    1.5960: real time    1.6214

 eigenvalue-minimisations  :  1480
 total energy-change (2. order) :-0.1025175E+02  (-0.3219483E-06)
 number of electron       7.9999995 magnetization 
 augmentation part       -0.4742076 magnetization 

 Broyden mixing:
  rms(total) = 0.49798E-04    rms(broyden)= 0.49796E-04
  rms(prec ) = 0.12760E-03
  weight for this iteration     100.00

 Free energy of the ion-electron system (eV)
  ---------------------------------------------------
  alpha Z        PSCENC =         4.40202223
  Ewald energy   TEWEN  =      -265.18101312
  -Hartree energ DENC   =        -2.49409600
  -exchange      EXHF   =         0.00000000
  -V(xc)+E(xc)   XCENC  =       -17.58324709
  PAW double counting   =        70.15638564      -35.06743540
  entropy T*S    EENTRO =        -0.01401972
  eigenvalues    EBANDS =        29.39839862
  atomic energy  EATOM  =       206.13125414
  Solvation  Ediel_sol  =         0.00000000
  ---------------------------------------------------
  free energy    TOTEN  =       -10.25175069 eV

  energy without entropy =      -10.23773097  energy(sigma->0) =      -10.24474083


--------------------------------------------------------------------------------------------------------




--------------------------------------- Iteration      1(   2)  ---------------------------------------


    POTLOK:  cpu time    0.0280: real time    0.0415
    SETDIJ:  cpu time    0.0080: real time    0.0091
     EDDAV:  cpu time    1.3600: real time    1.3585
       DOS:  cpu time    0.0040: real time    0.0070
    --------------------------------------------
      LOOP:  cpu time    1.4040: real time    1.4161

 eigenvalue-minimisations  :  1432
 total energy-change (2. order) :-0.2814761E-07  (-0.2612748E-07)
 number of electron       7.9999995 magnetization 
 augmentation part       -0.4742076 magnetization 

 Free energy of the ion-electron system (eV)
  ---------------------------------------------------
  alpha Z        PSCENC =         4.40202223
  Ewald energy   TEWEN  =      -265.18101312
  -Hartree energ DENC   =        -2.49422742
  -exchange      EXHF   =         0.00000000
  -V(xc)+E(xc)   XCENC  =       -17.58322186
  PAW double counting   =        70.15636265      -35.06741054
  entropy T*S    EENTRO =        -0.01401971
  eigenvalues    EBANDS =        29.39850291
  atomic energy  EATOM  =       206.13125414
  Solvation  Ediel_sol  =         0.00000000
  ---------------------------------------------------
  free energy    TOTEN  =       -10.25175072 eV

  energy without entropy =      -10.23773101  energy(sigma->0) =      -10.24474086


--------------------------------------------------------------------------------------------------------




 average (electrostatic) potential at core
  the test charge radii are     0.9892
  (the norm of the test charge is              1.0000)
       1 -80.5494       2 -80.5494
 
 
 
 E-fermi :   9.0729     XC(G=0): -10.8917     alpha+bet :-15.6819


 k-point     1 :       0.0417    0.0417    0.0417
  band No.  band energies     occupation 
      1      -4.3786      2.00000
      2       4.9589      2.00000
      3       6.5065      2.00000
      4       7.4965      2.00000
      5      11.1847      0.00000
      6      15.3354      0.00000
      7      16.4631      0.00000
      8      17.2946      0.00000

 k-point     2 :       0.1250    0.0417    0.0417
  band No.  band energies     occupation 
      1      -3.7916      2.00000
      2       4.6327      2.00000
      3       6.6679      2.00000
      4       8.6200      1.99864
      5      12.2685      0.00000
      6      13.8690      0.00000
      7      14.1048      0.00000
      8      15.9879      0.00000

 k-point     3 :       0.2083    0.0417    0.0417
  band No.  band energies     occupation 
      1      -2.8178      2.00000
      2       4.6288      2.00000
      3       6.8357      2.00000
      4       9.6381      0.00006
      5      11.4607      0.00000
      6      12.0812      0.00000
      7      13.8121      0.00000
      8      14.7343      0.00000

 k-point     4 :       0.2917    0.0417    0.0417
  band No.  band energies     occupation 
      1      -1.4651      2.00000
      2       4.9663      2.00000
      3       7.1553      2.00000
      4       7.5369      2.00000
      5      10.0646      0.00000
      6      12.6274      0.00000
      7      13.1164      0.00000
      8      14.0777      0.00000

 k-point     5 :       0.3750    0.0417    0.0417
  band No.  band energies     occupation 
      1       0.2520      2.00000
      2       4.7272      2.00000
      3       5.7491      2.00000
      4       7.5411      2.00000
      5       8.6853      1.99387
      6      11.3937      0.00000
      7      13.6516      0.00000
      8      14.3707      0.00000

 k-point     6 :       0.4583    0.0417    0.0417
  band No.  band energies     occupation 
      1       2.0701      2.00000
      2       2.6233      2.00000
      3       6.5883      2.00000
      4       6.8257      2.00000
      5       8.6115      1.99890
      6      10.6453      0.00000
      7      13.5305      0.00000
      8      14.4919      0.00000

 k-point     7 :      -0.0417    0.0417    0.0417
  band No.  band energies     occupation 
      1      -4.5747      2.00000
      2       5.3357      2.00000
      3       6.1224      2.00000
      4       7.2106      2.00000
      5      10.7688      0.00000
      6      15.7278      0.00000
      7      17.3989      0.00000
      8      17.9135      0.00000

 k-point     8 :       0.1250    0.1250    0.0417
  band No.  band energies     occupation 
      1      -2.8996      2.00000
      2       4.6281      2.00000
      3       7.7216      2.00000
      4       9.1204      0.73693
      5      11.5259      0.00000
      6      11.6623      0.00000
      7      13.8277      0.00000
      8      15.2448      0.00000

 k-point     9 :       0.2083    0.1250    0.0417
  band No.  band energies     occupation 
      1      -1.6271      2.00000
      2       4.9208      2.00000
      3       7.9335      2.00000
      4       8.3019      2.00000
      5       9.6442      0.00005
      6      11.4411      0.00000
      7      13.5794      0.00000
      8      14.3072      0.00000

 k-point    10 :       0.2917    0.1250    0.0417
  band No.  band energies     occupation 
      1       0.0135      2.00000
      2       5.3046      2.00000
      3       5.7164      2.00000
      4       7.0872      2.00000
      5       9.4881      0.00333
      6      11.9332      0.00000
      7      13.0662      0.00000
      8      13.9860      0.00000

 k-point    11 :       0.3750    0.1250    0.0417
  band No.  band energies     occupation 
      1       1.9550      2.00000
      2       3.0459      2.00000
      3       5.6801      2.00000
      4       6.5157      2.00000
      5       9.5077      0.00211
      6      11.4085      0.00000
      7      12.8725      0.00000
      8      15.2421      0.00000

 k-point    12 :       0.4583    0.1250    0.0417
  band No.  band energies     occupation 
      1       0.8079      2.00000
      2       4.2125      2.00000
      3       4.7227      2.00000
      4       7.5213      2.00000
      5       9.0134      1.32592
      6      12.0817      0.00000
      7      13.0131      0.00000
      8      15.2635      0.00000

 k-point    13 :      -0.4583    0.1250    0.0417
  band No.  band energies     occupation 
      1      -0.9794      2.00000
      2       3.7043      2.00000
      3       7.0016      2.00000
      4       7.5945      2.00000
      5       9.8419      0.00000
      6      12.6708      0.00000
      7      13.2772      0.00000
      8      14.4958      0.00000

 k-point    14 :      -0.3750    0.1250    0.0417
  band No.  band energies     occupation 
      1      -2.4090      2.00000
      2       3.2718      2.00000
      3       7.1506      2.00000
      4       9.6402      0.00006
      5      11.4641      0.00000
      6      11.7132      0.00000
      7      13.5021      0.00000
      8      15.5761      0.00000

 k-point    15 :      -0.2917    0.1250    0.0417
  band No.  band energies     occupation 
      1      -3.4624      2.00000
      2       3.1957      2.00000
      3       6.9547      2.00000
      4       9.2640      0.17655
      5      12.7514      0.00000
      6      13.5354      0.00000
      7      13.9704      0.00000
      8      15.3866      0.00000

 k-point    16 :      -0.2083    0.1250    0.0417
  band No.  band energies     occupation 
      1      -4.1308      2.00000
      2       3.4717      2.00000
      3       6.7352      2.00000
      4       8.2399      2.00000
      5      12.5563      0.00000
      6      13.8960      0.00000
      7      15.4487      0.00000
      8      17.0477      0.00000

 k-point    17 :      -0.1250    0.1250    0.0417
  band No.  band energies     occupation 
      1      -4.4093      2.00000
      2       4.0550      2.00000
      3       6.1320      2.00000
      4       8.1186      2.00000
      5      11.7189      0.00000
      6      14.2464      0.00000
      7      16.4772      0.00000
      8      18.9811      0.00000

 k-point    18 :      -0.0417    0.1250    0.0417
  band No.  band energies     occupation 
      1      -4.2960      2.00000
      2       4.6500      2.00000
      3       5.8304      2.00000
      4       8.3704      2.00000
      5      11.5848      0.00000
      6      14.3443      0.00000
      7      16.5438      0.00000
      8      17.4826      0.00000

 k-point    19 :       0.2083    0.2083    0.0417
  band No.  band energies     occupation 
      1      -0.0662      2.00000
      2       5.4572      2.00000
      3       6.2489      2.00000
      4       6.3004      2.00000
      5      10.1876      0.00000
      6      12.4156      0.00000
      7      12.7051      0.00000
      8      12.9848      0.00000

 k-point    20 :       0.2917    0.2083    0.0417
  band No.  band energies     occupation 
      1       1.8263      2.00000
      2       3.7805      2.00000
      3       4.6760      2.00000
      4       6.4137      2.00000
      5      10.2373      0.00000
      6      11.6524      0.00000
      7      13.0205      0.00000
      8      14.5880      0.00000

 k-point    21 :       0.3750    0.2083    0.0417
  band No.  band energies     occupation 
      1       1.5154      2.00000
      2       3.3305      2.00000
      3       4.2649      2.00000
      4       7.4794      2.00000
      5       9.5095      0.00202
      6      11.4220      0.00000
      7      13.9720      0.00000
      8      15.8227      0.00000

 k-point    22 :       0.4583    0.2083    0.0417
  band No.  band energies     occupation 
      1      -0.3352      2.00000
      2       2.4992      2.00000
      3       6.7406      2.00000
      4       8.0090      2.00000
      5       9.6367      0.00007
      6      11.6894      0.00000
      7      13.9686      0.00000
      8      15.5240      0.00000

 k-point    23 :      -0.4583    0.2083    0.0417
  band No.  band energies     occupation 
      1      -1.8388      2.00000
      2       1.9799      2.00000
      3       7.6377      2.00000
      4       9.4609      0.00608
      5      10.8520      0.00000
      6      12.0624      0.00000
      7      12.7426      0.00000
      8      15.4107      0.00000

 k-point    24 :      -0.3750    0.2083    0.0417
  band No.  band energies     occupation 
      1      -2.9701      2.00000
      2       1.8270      2.00000
      3       7.4034      2.00000
      4       9.8448      0.00000
      5      11.7192      0.00000
      6      13.0795      0.00000
      7      14.3993      0.00000
      8      14.9489      0.00000

 k-point    25 :      -0.2917    0.2083    0.0417
  band No.  band energies     occupation 
      1      -3.7188      2.00000
      2       2.0407      2.00000
      3       7.1161      2.00000
      4       8.8427      1.89640
      5      12.5115      0.00000
      6      14.2906      0.00000
      7      14.3995      0.00000
      8      16.7461      0.00000

 k-point    26 :      -0.2083    0.2083    0.0417
  band No.  band energies     occupation 
      1      -4.0791      2.00000
      2       2.6071      2.00000
      3       6.4235      2.00000
      4       8.7817      1.96051
      5      12.7912      0.00000
      6      13.3753      0.00000
      7      15.2330      0.00000
      8      19.2066      0.00000

 k-point    27 :      -0.1250    0.2083    0.0417
  band No.  band energies     occupation 
      1      -4.0484      2.00000
      2       3.4712      2.00000
      3       5.7632      2.00000
      4       9.2672      0.16953
      5      12.7778      0.00000
      6      12.9337      0.00000
      7      15.9488      0.00000
      8      17.1586      0.00000

 k-point    28 :      -0.0417    0.2083    0.0417
  band No.  band energies     occupation 
      1      -3.6270      2.00000
      2       4.3301      2.00000
      3       5.7149      2.00000
      4       9.7427      0.00000
      5      12.9256      0.00000
      6      13.0123      0.00000
      7      13.6196      0.00000
      8      15.8550      0.00000

 k-point    29 :       0.2917    0.2917    0.0417
  band No.  band energies     occupation 
      1       2.3323      2.00000
      2       2.3997      2.00000
      3       4.1636      2.00000
      4       7.4562      2.00000
      5       9.9194      0.00000
      6      10.8645      0.00000
      7      15.1647      0.00000
      8      15.3242      0.00000

 k-point    30 :       0.3750    0.2917    0.0417
  band No.  band energies     occupation 
      1       0.4638      2.00000
      2       1.4121      2.00000
      3       6.6011      2.00000
      4       8.3751      2.00000
      5       9.5397      0.00097
      6      11.0089      0.00000
      7      14.6013      0.00000
      8      15.7728      0.00000

 k-point    31 :       0.4583    0.2917    0.0417
  band No.  band energies     occupation 
      1      -1.1098      2.00000
      2       0.8074      2.00000
      3       8.2487      2.00000
      4       9.2622      0.18069
      5      10.1272      0.00000
      6      12.1327      0.00000
      7      12.8232      0.00000
      8      14.5786      0.00000

 k-point    32 :      -0.4583    0.2917    0.0417
  band No.  band energies     occupation 
      1      -2.3166      2.00000
      2       0.5755      2.00000
      3       8.0018      2.00000
      4      10.3877      0.00000
      5      10.7273      0.00000
      6      12.5966      0.00000
      7      14.0855      0.00000
      8      14.2032      0.00000

 k-point    33 :      -0.3750    0.2917    0.0417
  band No.  band energies     occupation 
      1      -3.1440      2.00000
      2       0.7184      2.00000
      3       7.6486      2.00000
      4       9.4817      0.00385
      5      11.2626      0.00000
      6      13.1393      0.00000
      7      16.0203      0.00000
      8      16.4940      0.00000

 k-point    34 :      -0.2917    0.2917    0.0417
  band No.  band energies     occupation 
      1      -3.5852      2.00000
      2       1.2304      2.00000
      3       6.8816      2.00000
      4       9.3977      0.02162
      5      11.4506      0.00000
      6      14.0066      0.00000
      7      15.3861      0.00000
      8      18.9701      0.00000

 k-point    35 :      -0.2083    0.2917    0.0417
  band No.  band energies     occupation 
      1      -3.6369      2.00000
      2       2.0934      2.00000
      3       6.0952      2.00000
      4       9.9402      0.00000
      5      11.5418      0.00000
      6      14.4923      0.00000
      7      15.1490      0.00000
      8      16.5947      0.00000

 k-point    36 :      -0.1250    0.2917    0.0417
  band No.  band energies     occupation 
      1      -3.2986      2.00000
      2       3.2453      2.00000
      3       5.6393      2.00000
      4      10.5346      0.00000
      5      11.7876      0.00000
      6      13.1446      0.00000
      7      14.2745      0.00000
      8      15.7648      0.00000

 k-point    37 :      -0.0417    0.2917    0.0417
  band No.  band energies     occupation 
      1      -2.5728      2.00000
      2       4.3776      2.00000
      3       5.8666      2.00000
      4       9.5994      0.00020
      5      11.7881      0.00000
      6      12.3218      0.00000
      7      14.1087      0.00000
      8      14.2108      0.00000

 k-point    38 :       0.3750    0.3750    0.0417
  band No.  band energies     occupation 
      1      -0.2280      2.00000
      2      -0.2236      2.00000
      3       8.8666      1.85532
      4       8.9107      1.74853
      5       9.7347      0.00000
      6      12.0250      0.00000
      7      13.2906      0.00000
      8      13.9825      0.00000

 k-point    39 :       0.4583    0.3750    0.0417
  band No.  band energies     occupation 
      1      -1.5047      2.00000
      2      -0.5385      2.00000
      3       8.7421      1.98068
      4       9.6156      0.00012
      5      11.1570      0.00000
      6      12.0354      0.00000
      7      13.6734      0.00000
      8      14.0174      0.00000

 k-point    40 :      -0.4583    0.3750    0.0417
  band No.  band energies     occupation 
      1      -2.4087      2.00000
      2      -0.4715      2.00000
      3       8.3316      2.00000
      4      10.1231      0.00000
      5      10.2430      0.00000
      6      12.0602      0.00000
      7      16.3057      0.00000
      8      16.3360      0.00000

 k-point    41 :      -0.3750    0.3750    0.0417
  band No.  band energies     occupation 
      1      -2.9296      2.00000
      2      -0.0268      2.00000
      3       7.4956      2.00000
      4      10.0870      0.00000
      5      10.2440      0.00000
      6      12.8578      0.00000
      7      17.4740      0.00000
      8      18.8277      0.00000

 k-point    42 :      -0.2917    0.3750    0.0417
  band No.  band energies     occupation 
      1      -3.0629      2.00000
      2       0.7867      2.00000
      3       6.6201      2.00000
      4      10.2701      0.00000
      5      10.6013      0.00000
      6      14.0728      0.00000
      7      15.8905      0.00000
      8      16.7128      0.00000

 k-point    43 :      -0.2083    0.3750    0.0417
  band No.  band energies     occupation 
      1      -2.8076      2.00000
      2       1.9472      2.00000
      3       6.0199      2.00000
      4      10.4474      0.00000
      5      11.1154      0.00000
      6      12.9172      0.00000
      7      15.0922      0.00000
      8      16.3511      0.00000

 k-point    44 :      -0.1250    0.3750    0.0417
  band No.  band energies     occupation 
      1      -2.1654      2.00000
      2       3.3859      2.00000
      3       5.8212      2.00000
      4       9.2470      0.21815
      5      10.9202      0.00000
      6      12.9442      0.00000
      7      13.6889      0.00000
      8      15.3920      0.00000

 k-point    45 :      -0.0417    0.3750    0.0417
  band No.  band energies     occupation 
      1      -1.1418      2.00000
      2       4.7739      2.00000
      3       6.3130      2.00000
      4       6.9414      2.00000
      5      10.3618      0.00000
      6      12.9044      0.00000
      7      12.9412      0.00000
[...]
      4       7.3774      2.00000
      5      13.3794      0.00000
      6      15.2244      0.00000
      7      17.7809      0.00000
      8      18.2357      0.00000

 k-point   125 :      -0.2083    0.3750    0.2083
  band No.  band energies     occupation 
      1      -1.9999      2.00000
      2       2.0795      2.00000
      3       3.8009      2.00000
      4       7.7456      2.00000
      5      11.0837      0.00000
      6      15.2413      0.00000
      7      16.9767      0.00000
      8      17.4650      0.00000

 k-point   126 :      -0.4583    0.4583    0.2083
  band No.  band energies     occupation 
      1      -1.6436      2.00000
      2      -0.6924      2.00000
      3       5.3477      2.00000
      4       6.2677      2.00000
      5      14.3053      0.00000
      6      15.1398      0.00000
      7      17.8413      0.00000
      8      17.9330      0.00000

 k-point   127 :      -0.3750    0.4583    0.2083
  band No.  band energies     occupation 
      1      -1.6953      2.00000
      2       0.1738      2.00000
      3       4.4131      2.00000
      4       6.2267      2.00000
      5      13.5458      0.00000
      6      15.6436      0.00000
      7      17.4485      0.00000
      8      18.9644      0.00000

 k-point   128 :      -0.2917    0.4583    0.2083
  band No.  band energies     occupation 
      1      -1.3607      2.00000
      2       1.3258      2.00000
      3       3.9268      2.00000
      4       6.5347      2.00000
      5      10.8488      0.00000
      6      16.2854      0.00000
      7      17.1196      0.00000
      8      18.5031      0.00000

 k-point   129 :      -0.2083    0.4583    0.2083
  band No.  band energies     occupation 
      1      -0.6428      2.00000
      2       2.4570      2.00000
      3       4.1863      2.00000
      4       7.1502      2.00000
      5       8.2080      2.00000
      6      14.8880      0.00000
      7      16.4873      0.00000
      8      17.1822      0.00000

 k-point   130 :      -0.4583   -0.4583    0.2083
  band No.  band energies     occupation 
      1      -0.8269      2.00000
      2      -0.8237      2.00000
      3       5.2315      2.00000
      4       5.2322      2.00000
      5      13.5659      0.00000
      6      16.0197      0.00000
      7      16.9498      0.00000
      8      19.0107      0.00000

 k-point   131 :      -0.3750   -0.4583    0.2083
  band No.  band energies     occupation 
      1      -0.5737      2.00000
      2       0.3427      2.00000
      3       4.5812      2.00000
      4       5.4716      2.00000
      5      10.7222      0.00000
      6      16.9974      0.00000
      7      17.1947      0.00000
      8      18.2596      0.00000

 k-point   132 :      -0.2917   -0.4583    0.2083
  band No.  band energies     occupation 
      1       0.0597      2.00000
      2       1.7891      2.00000
      3       4.3816      2.00000
      4       6.0523      2.00000
      5       7.9669      2.00000
      6      15.1759      0.00000
      7      17.2931      0.00000
      8      18.1603      0.00000

 k-point   133 :      -0.2083   -0.4583    0.2083
  band No.  band energies     occupation 
      1       1.0655      2.00000
      2       3.1871      2.00000
      3       4.9226      2.00000
      4       5.4551      2.00000
      5       7.0223      2.00000
      6      13.2999      0.00000
      7      14.8061      0.00000
      8      17.7988      0.00000

 k-point   134 :      -0.3750   -0.3750    0.2083
  band No.  band energies     occupation 
      1       0.8814      2.00000
      2       0.9012      2.00000
      3       5.0986      2.00000
      4       5.1068      2.00000
      5       7.8890      2.00000
      6      15.2056      0.00000
      7      18.0229      0.00000
      8      18.3704      0.00000

 k-point   135 :      -0.2917   -0.3750    0.2083
  band No.  band energies     occupation 
      1       1.8072      2.00000
      2       2.6137      2.00000
      3       5.0986      2.00000
      4       5.3689      2.00000
      5       6.0370      2.00000
      6      13.5881      0.00000
      7      15.7107      0.00000
      8      17.0673      0.00000

 k-point   136 :      -0.2083   -0.3750    0.2083
  band No.  band energies     occupation 
      1       2.7181      2.00000
      2       3.3252      2.00000
      3       4.4460      2.00000
      4       5.9866      2.00000
      5       7.1588      2.00000
      6      12.0191      0.00000
      7      13.2920      0.00000
      8      15.4160      0.00000

 k-point   137 :      -0.2917   -0.2917    0.2083
  band No.  band energies     occupation 
      1       2.7395      2.00000
      2       3.8565      2.00000
      3       4.0383      2.00000
      4       6.3100      2.00000
      5       6.3553      2.00000
      6      12.2880      0.00000
      7      13.9699      0.00000
      8      14.5721      0.00000

 k-point   138 :      -0.2083   -0.2917    0.2083
  band No.  band energies     occupation 
      1       0.8924      2.00000
      2       5.4316      2.00000
      3       5.8578      2.00000
      4       7.2895      2.00000
      5       7.6540      2.00000
      6      11.1154      0.00000
      7      12.0734      0.00000
      8      12.8501      0.00000

 k-point   139 :      -0.2083   -0.2083    0.2083
  band No.  band energies     occupation 
      1      -0.7916      2.00000
      2       7.4657      2.00000
      3       7.7038      2.00000
      4       8.3690      2.00000
      5       8.3690      2.00000
      6      10.2603      0.00000
      7      11.4810      0.00000
      8      11.4810      0.00000

 k-point   140 :      -0.2917    0.2917    0.2917
  band No.  band energies     occupation 
      1      -2.6121      2.00000
      2       1.4795      2.00000
      3       3.2238      2.00000
      4       7.2048      2.00000
      5      14.0815      0.00000
      6      16.9704      0.00000
      7      17.4297      0.00000
      8      18.0686      0.00000

 k-point   141 :      -0.3750    0.3750    0.2917
  band No.  band energies     occupation 
      1      -1.9709      2.00000
      2       0.7238      2.00000
      3       3.3483      2.00000
      4       5.9762      2.00000
      5      15.0353      0.00000
      6      16.6308      0.00000
      7      17.9366      0.00000
      8      18.9154      0.00000

 k-point   142 :      -0.2917    0.3750    0.2917
  band No.  band energies     occupation 
      1      -1.8590      2.00000
      2       1.2614      2.00000
      3       3.0336      2.00000
      4       6.0805      2.00000
      5      13.5328      0.00000
      6      16.3173      0.00000
      7      18.9153      0.00000
      8      19.5373      0.00000

 k-point   143 :      -0.4583    0.4583    0.2917
  band No.  band energies     occupation 
      1      -1.1814      2.00000
      2      -0.2622      2.00000
      3       4.0057      2.00000
      4       4.9026      2.00000
      5      15.7092      0.00000
      6      16.2188      0.00000
      7      18.0672      0.00000
      8      18.4325      0.00000

 k-point   144 :      -0.3750    0.4583    0.2917
  band No.  band energies     occupation 
      1      -1.1517      2.00000
      2       0.5893      2.00000
      3       3.2289      2.00000
      4       4.9333      2.00000
      5      13.4490      0.00000
      6      17.2943      0.00000
      7      19.1679      0.00000
      8      19.7382      0.00000

 k-point   145 :      -0.2917    0.4583    0.2917
  band No.  band energies     occupation 
      1      -0.7366      2.00000
      2       1.4263      2.00000
      3       3.2059      2.00000
      4       5.3230      2.00000
      5      10.5910      0.00000
      6      17.5949      0.00000
      7      18.2174      0.00000
      8      19.0562      0.00000

 k-point   146 :      -0.4583   -0.4583    0.2917
  band No.  band energies     occupation 
      1      -0.3167      2.00000
      2      -0.3121      2.00000
      3       3.9602      2.00000
      4       3.9615      2.00000
      5      13.4076      0.00000
      6      17.8353      0.00000
      7      18.7418      0.00000
      8      19.7564      0.00000

 k-point   147 :      -0.3750   -0.4583    0.2917
  band No.  band energies     occupation 
      1       0.0176      2.00000
      2       0.8380      2.00000
      3       3.4746      2.00000
      4       4.2798      2.00000
      5      10.4562      0.00000
      6      18.1354      0.00000
      7      18.8971      0.00000
      8      19.6625      0.00000

 k-point   148 :      -0.2917   -0.4583    0.2917
  band No.  band energies     occupation 
      1       0.7294      2.00000
      2       1.9697      2.00000
      3       3.7406      2.00000
      4       4.9537      2.00000
      5       7.7373      2.00000
      6      16.1256      0.00000
      7      17.5871      0.00000
      8      18.8198      0.00000

 k-point   149 :      -0.3750   -0.3750    0.2917
  band No.  band energies     occupation 
      1       1.4516      2.00000
      2       1.4792      2.00000
      3       4.0788      2.00000
      4       4.0848      2.00000
      5       7.6610      2.00000
      6      16.4213      0.00000
      7      18.2517      0.00000
      8      18.4133      0.00000

 k-point   150 :      -0.2917   -0.3750    0.2917
  band No.  band energies     occupation 
      1       2.4485      2.00000
      2       2.8689      2.00000
      3       4.6300      2.00000
      4       4.9678      2.00000
      5       5.2759      2.00000
      6      14.6479      0.00000
      7      15.7503      0.00000
      8      16.4599      0.00000

 k-point   151 :      -0.2917   -0.2917    0.2917
  band No.  band energies     occupation 
      1       2.6915      2.00000
      2       4.1997      2.00000
      3       4.3696      2.00000
      4       5.8482      2.00000
      5       5.8482      2.00000
      6      13.2665      0.00000
      7      13.8883      0.00000
      8      13.8883      0.00000

 k-point   152 :      -0.3750    0.3750    0.3750
  band No.  band energies     occupation 
      1      -1.3450      2.00000
      2       0.8222      2.00000
      3       2.6250      2.00000
      4       4.7521      2.00000
      5      15.8772      0.00000
      6      16.5296      0.00000
      7      18.4905      0.00000
      8      19.9756      0.00000

 k-point   153 :      -0.4583    0.4583    0.3750
  band No.  band energies     occupation 
      1      -0.5888      2.00000
      2       0.2333      2.00000
      3       2.8930      2.00000
      4       3.7017      2.00000
      5      16.1855      0.00000
      6      16.3564      0.00000
      7      19.2024      0.00000
      8      19.8525      0.00000

 k-point   154 :      -0.3750    0.4583    0.3750
  band No.  band energies     occupation 
      1      -0.4777      2.00000
      2       0.7678      2.00000
      3       2.5814      2.00000
      4       3.8085      2.00000
      5      13.3087      0.00000
      6      18.6052      0.00000
      7      19.9056      0.00000
      8      20.4272      0.00000

 k-point   155 :      -0.4583   -0.4583    0.3750
  band No.  band energies     occupation 
      1       0.2589      2.00000
      2       0.2651      2.00000
      3       2.9237      2.00000
      4       2.9248      2.00000
      5      13.2551      0.00000
      6      19.0804      0.00000
      7      20.2693      0.00000
      8      20.3513      0.00000

 k-point   156 :      -0.3750   -0.4583    0.3750
  band No.  band energies     occupation 
      1       0.6746      2.00000
      2       1.0982      2.00000
      3       2.9042      2.00000
      4       3.3226      2.00000
      5      10.3187      0.00000
      6      18.9169      0.00000
      7      20.0818      0.00000
      8      20.1126      0.00000

 k-point   157 :      -0.3750   -0.3750    0.3750
  band No.  band energies     occupation 
      1       1.7890      2.00000
      2       1.8239      2.00000
      3       3.5905      2.00000
      4       3.5905      2.00000
      5       7.5849      2.00000
      6      17.1527      0.00000
      7      18.1926      0.00000
      8      18.1926      0.00000

 k-point   158 :      -0.4583    0.4583    0.4583
  band No.  band energies     occupation 
      1       0.0692      2.00000
      2       0.4921      2.00000
      3       2.3217      2.00000
      4       2.7400      2.00000
      5      16.2513      0.00000
      6      16.2939      0.00000
      7      20.4454      0.00000
      8      20.9115      0.00000

 k-point   159 :      -0.4583   -0.4583    0.4583
  band No.  band energies     occupation 
      1       0.5989      2.00000
      2       0.6066      2.00000
      3       2.4295      2.00000
      4       2.4295      2.00000
      5      13.1987      0.00000
      6      19.3432      0.00000
      7      21.0522      0.00000
      8      21.0652      0.00000


--------------------------------------------------------------------------------------------------------


 soft charge-density along one line, spin component           1
         0         1         2         3         4         5         6         7         8         9
 total charge-density along one line
 
 pseudopotential strength for first ion, spin component:           1
 18.064  -0.003   0.000  -0.000  -0.000  -0.000   0.000   0.000
 -0.003   0.005  -0.000   0.000   0.000   0.000  -0.000  -0.000
  0.000  -0.000   4.116   0.000   0.000  -0.006  -0.000  -0.000
 -0.000   0.000   0.000   4.117   0.000  -0.000  -0.006  -0.000
 -0.000   0.000   0.000   0.000   4.116  -0.000  -0.000  -0.006
 -0.000   0.000  -0.006  -0.000  -0.000   0.005   0.000   0.000
  0.000  -0.000  -0.000  -0.006  -0.000   0.000   0.005   0.000
  0.000  -0.000  -0.000  -0.000  -0.006   0.000   0.000   0.005
 total augmentation occupancy for first ion, spin component:           1
  1.617  -0.468  -0.000   0.000  -0.000   0.000   0.000  -0.000
 -0.468   0.898   0.000   0.000  -0.000   0.000   0.000  -0.000
  0.000  -0.000   0.892  -0.000  -0.000  -0.474   0.000   0.000
  0.000   0.000   0.000   0.869   0.000   0.000  -0.489   0.000
 -0.000  -0.000  -0.000   0.000   0.892   0.000   0.000  -0.474
  0.000   0.000  -0.474  -0.000   0.000   0.331  -0.000  -0.000
  0.000   0.000  -0.000  -0.489   0.000   0.000   0.363  -0.000
  0.000  -0.000   0.000   0.000  -0.474  -0.000  -0.000   0.331


------------------------ aborting loop because EDIFF is reached ----------------------------------------


    CHARGE:  cpu time    0.1400: real time    0.1397
    FORLOC:  cpu time    0.0000: real time    0.0009
    FORNL :  cpu time    0.0440: real time    0.0434
    STRESS:  cpu time    0.5360: real time    0.5358
    FORCOR:  cpu time    0.0200: real time    0.0224
    FORHAR:  cpu time    0.0080: real time    0.0057
    MIXING:  cpu time    0.0000: real time    0.0016
    OFIELD:  cpu time    0.0000: real time    0.0008

  FORCE on cell =-STRESS in cart. coord.  units (eV):
  Direction    XX          YY          ZZ          XY          YZ          ZX
  --------------------------------------------------------------------------------------
  Alpha Z     4.40202     4.40202     4.40202
  Ewald     -90.96023   -90.96023   -83.26083    -0.00000     0.00000     0.00000
  Hartree     0.54947     0.54947     1.39541    -0.00000    -0.00000    -0.00000
  E(xc)     -25.41282   -25.41282   -25.36727    -0.00000     0.00000     0.00000
  Local     -11.11005   -11.11005   -17.49109    -0.00002    -0.00002    -0.00002
  n-local    76.87269    76.90661    76.49042     1.06066    -0.40358    -0.45405
  augment   -12.09540   -12.09540   -12.02157     0.00002     0.00002     0.00002
  Kinetic    57.13262    57.40296    56.92268     3.39902    -1.95352    -3.47288
  Fock        0.00000     0.00000     0.00000     0.00000     0.00000     0.00000
  -------------------------------------------------------------------------------------
  Total      -0.46958    -0.46958     1.06977    -0.00000     0.00000     0.00000
  in kB     -24.59544   -24.59544    56.03249    -0.00000     0.00000     0.00000
  external pressure =        2.28 kB  Pullay stress =        0.00 kB


 VOLUME and BASIS-vectors are now :
 -----------------------------------------------------------------------------
  energy-cutoff  :      350.00
  volume of cell :       30.59
      direct lattice vectors                 reciprocal lattice vectors
    -2.450000000  2.450000000  1.274000000     0.000000000  0.204081633  0.392464678
     2.450000000 -2.450000000  1.274000000     0.204081633  0.000000000  0.392464678
     2.450000000  2.450000000 -1.274000000     0.204081633  0.204081633 -0.000000000

  length of vectors
     3.691622408  3.691622408  3.691622408     0.442354876  0.442354876  0.288615013


 FORCES acting on ions
    electron-ion (+dipol)            ewald-force                    non-local-force                 convergence-correction
 -----------------------------------------------------------------------------------------------
   -.182E-06 0.182E-06 0.136E-13   0.198E-14 0.156E-15 0.342E-17   -.649E-16 0.669E-16 0.189E-17   0.383E-10 -.383E-10 0.111E-16
   0.182E-06 -.182E-06 -.889E-14   -.185E-14 0.943E-16 0.891E-15   0.583E-16 -.596E-16 -.194E-17   -.383E-10 0.383E-10 0.740E-16
 -----------------------------------------------------------------------------------------------
   -.142E-13 0.181E-15 0.471E-14   0.139E-15 0.250E-15 0.894E-15   -.659E-17 0.729E-17 -.416E-19   -.270E-16 -.109E-15 0.851E-16
 
 
 POSITION                                       TOTAL-FORCE (eV/Angst)
 -----------------------------------------------------------------------------------
      2.45000      0.00000      0.63700         0.000000      0.000000     -0.000000
      0.00000      0.00000      0.00000        -0.000000     -0.000000      0.000000
 -----------------------------------------------------------------------------------
    total drift:                               -0.000000      0.000000      0.000000


--------------------------------------------------------------------------------------------------------



  FREE ENERGIE OF THE ION-ELECTRON SYSTEM (eV)
  ---------------------------------------------------
  free  energy   TOTEN  =       -10.25175072 eV

  energy  without entropy=      -10.23773101  energy(sigma->0) =      -10.24474086
 


--------------------------------------------------------------------------------------------------------


    POTLOK:  cpu time    0.0400: real time    0.0615


--------------------------------------------------------------------------------------------------------




--------------------------------------------------------------------------------------------------------


  
 reached required accuracy - stopping structural energy minimisation
 writing wavefunctions
     LOOP+:  cpu time    5.3360: real time    6.5888
    4ORBIT:  cpu time    0.0000: real time    0.0000

 total amount of memory used by VASP MPI-rank0    36873. kBytes
=======================================================================

   base      :      30000. kBytes
   nonl-proj :       4818. kBytes
   fftplans  :        247. kBytes
   grid      :        561. kBytes
   one-center:          6. kBytes
   wavefun   :       1241. kBytes
 
  
  
 General timing and accounting informations for this job:
 ========================================================
  
                  Total CPU time used (sec):       11.060
                            User time (sec):        8.796
                          System time (sec):        2.264
                         Elapsed time (sec):       17.033
  
                   Maximum memory used (kb):        9316.
                   Average memory used (kb):           0.
  
                          Minor page faults:        38081
                          Major page faults:           28
                 Voluntary context switches:        52322
