    2    2   15    1
  0.1529437E+02  0.3691622E-09  0.3691622E-09  0.3691622E-09  0.5000000E-15
  1.000000000000000E-004
  CAR 
 unknown system                          
      8     75      8
 
  0.0000000E+00  0.0000000E+00  0.0000000E+00  0.1371742E-02
    1       -4.614113   1.000000
    2        6.657633   1.000000
    3        6.657638   1.000000
    4        7.191060   1.000000
    5       10.730638   0.000000
    6       16.509326   0.000000
    7       17.971470   0.000000
    8       17.971477   0.000000
 
  0.1111111E+00 -0.9377698E-17  0.9377698E-17  0.1097394E-01
    1       -4.289388   1.000000
    2        5.881715   1.000000
    3        6.529489   1.000000
    4        8.512203   0.999965
    5       11.446834   0.000000
    6       14.690954   0.000000
    7       15.228764   0.000000
    8       17.069510   0.000000
 
  0.2222222E+00  0.6918512E-17 -0.6918512E-17  0.1097394E-01
    1       -3.319551   1.000000
    2        5.464245   1.000000
    3        6.444000   1.000000
    4        9.880328   0.000000
    5       11.669435   0.000000
    6       12.409614   0.000000
    7       13.054441   0.000000
    8       15.085779   0.000000
 
  0.3333333E+00 -0.3591853E-16  0.3591853E-16  0.1097394E-01
    1       -1.719851   1.000000
    2        5.494690   1.000000
    3        6.688433   1.000000
    4        6.995381   1.000000
    5        9.951899   0.000000
    6       12.023701   0.000000
    7       13.377438   0.000000
    8       14.280778   0.000000
 
  0.4444444E+00  0.1383702E-16 -0.1383702E-16  0.1097394E-01
    1        0.454253   1.000000
    2        3.373498   1.000000
    3        6.609035   1.000000
    4        7.169725   1.000000
    5        8.056141   1.000000
    6       10.460475   0.000000
    7       13.603275   0.000000
    8       14.524684   0.000000
 
  0.1111111E+00  0.1111111E+00  0.1875540E-16  0.1097394E-01
    1       -3.473037   1.000000
    2        5.711931   1.000000
    3        7.533578   1.000000
    4        9.175468   0.238715
    5       11.792863   0.000000
    6       11.939982   0.000000
    7       12.784526   0.000000
    8       15.039837   0.000000
 
  0.2222222E+00  0.1111111E+00 -0.2719765E-16  0.2194787E-01
    1       -2.022904   1.000000
    2        5.746916   1.000000
    3        7.507665   1.000000
    4        8.129704   1.000000
    5        9.472281   0.002483
    6       11.612998   0.000000
    7       12.495776   0.000000
    8       13.714810   0.000000
 
  0.3333333E+00  0.1111111E+00  0.2951719E-16  0.2194787E-01
    1        0.023282   1.000000
    2        4.212581   1.000000
    3        6.399647   1.000000
    4        6.813320   1.000000
    5        8.842968   0.949568
    6       10.965951   0.000000
    7       12.468326   0.000000
    8       14.922562   0.000000
 
  0.4444444E+00  0.1111111E+00  0.7517205E-17  0.2194787E-01
    1        1.142751   1.000000
    2        2.825863   1.000000
    3        5.224661   1.000000
    4        7.273914   1.000000
    5        8.548033   0.999903
    6       11.290605   0.000000
    7       12.471872   0.000000
    8       15.825516   0.000000
 
 -0.4444444E+00  0.1111111E+00  0.4279628E-16  0.2194787E-01
    1       -1.115982   1.000000
    2        4.059026   1.000000
    3        6.068868   1.000000
    4        6.998294   1.000000
    5        9.813014   0.000000
    6       12.442022   0.000000
    7       13.358793   0.000000
    8       14.745580   0.000000
 
 -0.3333333E+00  0.1111111E+00 -0.1456430E-16  0.2194787E-01
    1       -2.859968   1.000000
    2        3.765544   1.000000
    3        6.523728   1.000000
    4        9.645460   0.000027
    5       11.842687   0.000000
    6       12.238279   0.000000
    7       13.777030   0.000000
    8       15.079946   0.000000
 
 -0.2222222E+00  0.1111111E+00  0.1629621E-16  0.2194787E-01
    1       -3.980852   1.000000
    2        4.013277   1.000000
    3        6.627408   1.000000
    4        9.611810   0.000074
    5       12.987810   0.000000
    6       13.619672   0.000000
    7       14.618552   0.000000
    8       16.177281   0.000000
 
 -0.1111111E+00  0.1111111E+00  0.7914115E-18  0.5486968E-02
    1       -4.459471   1.000000
    2        4.825259   1.000000
    3        6.797467   1.000000
    4        8.412005   0.999999
    5       11.731690   0.000000
    6       15.158057   0.000000
    7       17.120907   0.000000
    8       17.817259   0.000000
 
  0.2222222E+00  0.2222222E+00 -0.4159260E-16  0.1097394E-01
    1       -0.122179   1.000000
    2        5.184156   1.000000
    3        5.418445   1.000000
    4        6.571561   1.000000
    5        9.777117   0.000000
    6       11.311551   0.000000
    7       12.637831   0.000000
    8       13.088619   0.000000
 
  0.3333333E+00  0.2222222E+00  0.4287781E-16  0.2194787E-01
    1        1.884366   1.000000
    2        2.727204   1.000000
    3        3.796742   1.000000
    4        7.333843   1.000000
    5        9.191896   0.204230
    6       10.749052   0.000000
    7       13.527343   0.000000
    8       15.804872   0.000000
 
  0.4444444E+00  0.2222222E+00  0.2087783E-16  0.2194787E-01
    1       -0.216859   1.000000
    2        2.415059   1.000000
    3        5.649169   1.000000
    4        7.642224   1.000000
    5        9.390207   0.012911
    6       11.234480   0.000000
    7       14.832661   0.000000
    8       15.876907   0.000000
 
 -0.4444444E+00  0.2222222E+00  0.6918512E-17  0.2194787E-01
    1       -2.097346   1.000000
    2        1.927927   1.000000
    3        7.155946   1.000000
    4        9.198301   0.191631
    5       10.810086   0.000000
    6       12.768158   0.000000
    7       13.012519   0.000000
    8       16.249088   0.000000
 
 -0.3333333E+00  0.2222222E+00 -0.1251408E-16  0.2194787E-01
    1       -3.365625   1.000000
    2        2.032283   1.000000
    3        7.175823   1.000000
    4       10.393877   0.000000
    5       11.942413   0.000000
    6       13.819314   0.000000
    7       15.040518   0.000000
    8       15.691775   0.000000
 
 -0.2222222E+00  0.2222222E+00  0.1582823E-17  0.5486968E-02
    1       -3.996356   1.000000
    2        2.741218   1.000000
    3        7.216464   1.000000
    4        9.242255   0.118463
    5       13.313997   0.000000
    6       14.120518   0.000000
    7       15.541528   0.000000
    8       17.470383   0.000000
 
  0.3333333E+00  0.3333333E+00  0.7183707E-16  0.1097394E-01
    1        0.940112   1.000000
    2        0.995037   1.000000
    3        5.507744   1.000000
    4        8.164334   1.000000
    5        9.046213   0.580638
    6       10.667475   0.000000
    7       15.864767   0.000000
    8       16.644352   0.000000
 
  0.4444444E+00  0.3333333E+00  0.4983708E-16  0.2194787E-01
    1       -1.037267   1.000000
    2        0.310638   1.000000
    3        7.996993   1.000000
    4        8.811513   0.968776
    5        9.795184   0.000000
    6       12.310832   0.000000
    7       13.941498   0.000000
    8       15.278563   0.000000
 
 -0.4444444E+00  0.3333333E+00  0.6553460E-16  0.2194787E-01
    1       -2.447545   1.000000
    2        0.266866   1.000000
    3        8.006938   1.000000
    4       10.416156   0.000000
    5       11.288135   0.000000
    6       13.201412   0.000000
    7       14.506905   0.000000
    8       14.851594   0.000000
 
 -0.3333333E+00  0.3333333E+00  0.1438931E-16  0.5486968E-02
    1       -3.227654   1.000000
    2        0.845769   1.000000
    3        7.912755   1.000000
    4       10.085286   0.000000
    5       11.605743   0.000000
    6       13.909678   0.000000
    7       16.793422   0.000000
    8       17.172134   0.000000
 
  0.4444444E+00  0.4444444E+00 -0.8318520E-16  0.1097394E-01
    1       -1.234258   1.000000
    2       -1.231780   1.000000
    3        9.096491   0.439596
    4        9.103525   0.420062
    5       12.048831   0.000000
    6       12.562382   0.000000
    7       14.049157   0.000000
    8       14.700226   0.000000
 
 -0.4444444E+00  0.4444444E+00  0.3165646E-17  0.5486968E-02
    1       -2.158249   1.000000
    2       -0.795822   1.000000
    3        8.882389   0.913391
    4       10.117738   0.000000
    5       11.135408   0.000000
    6       12.417800   0.000000
    7       17.042464   0.000000
    8       17.128176   0.000000
 
  0.1111111E+00  0.1111111E+00  0.1111111E+00  0.1097394E-01
    1       -3.012714   1.000000
    2        3.667969   1.000000
    3        7.887068   1.000000
    4        9.829324   0.000000
    5       11.188606   0.000000
    6       11.408067   0.000000
    7       14.858202   0.000000
    8       15.361662   0.000000
 
  0.2222222E+00  0.1111111E+00  0.1111111E+00  0.2194787E-01
    1       -1.416231   1.000000
    2        3.865494   1.000000
    3        6.979110   1.000000
    4        7.917376   1.000000
    5        9.632048   0.000041
    6       12.383906   0.000000
    7       13.806514   0.000000
    8       14.601417   0.000000
 
  0.3333333E+00  0.1111111E+00  0.1111111E+00  0.2194787E-01
    1        0.750776   1.000000
    2        3.576718   1.000000
    3        4.863987   1.000000
    4        6.275913   1.000000
    5        9.920121   0.000000
    6       12.225804   0.000000
    7       13.926832   0.000000
    8       14.389871   0.000000
 
 -0.1111111E+00  0.1111111E+00  0.1111111E+00  0.5486968E-02
    1       -4.305088   1.000000
    2        4.567379   1.000000
    3        5.606131   1.000000
    4        9.760619   0.000001
    5       12.358167   0.000000
    6       13.833217   0.000000
    7       17.437300   0.000000
    8       17.605978   0.000000
 
  0.2222222E+00  0.2222222E+00  0.1111111E+00  0.1097394E-01
    1        0.613233   1.000000
    2        4.176307   1.000000
    3        4.894342   1.000000
    4        5.298644   1.000000
    5       11.039550   0.000000
    6       13.076212   0.000000
    7       13.780018   0.000000
    8       13.795219   0.000000
 
  0.3333333E+00  0.2222222E+00  0.1111111E+00  0.2194787E-01
    1        1.731428   1.000000
    2        2.869922   1.000000
    3        3.798264   1.000000
    4        6.009655   1.000000
    5       10.955663   0.000000
    6       12.498860   0.000000
    7       14.320266   0.000000
    8       15.276571   0.000000
 
  0.4444444E+00  0.2222222E+00  0.1111111E+00  0.2194787E-01
    1       -0.511907   1.000000
    2        2.150959   1.000000
    3        6.602050   1.000000
    4        7.690528   1.000000
    5       10.296150   0.000000
    6       12.770734   0.000000
    7       13.292155   0.000000
    8       15.191182   0.000000
 
 -0.4444444E+00  0.2222222E+00  0.1111111E+00  0.1097394E-01
    1       -2.248569   1.000000
    2        1.794353   1.000000
    3        8.422997   0.999998
    4        9.903732   0.000000
    5       11.105882   0.000000
    6       11.245087   0.000000
    7       13.480166   0.000000
    8       14.675027   0.000000
 
 -0.2222222E+00  0.2222222E+00  0.1111111E+00  0.1097394E-01
    1       -3.842735   1.000000
    2        2.840185   1.000000
    3        5.687304   1.000000
    4       10.900417   0.000000
    5       11.935242   0.000000
    6       14.405842   0.000000
    7       16.436856   0.000000
    8       17.216185   0.000000
 
 -0.1111111E+00  0.2222222E+00  0.1111111E+00  0.1097394E-01
    1       -3.673365   1.000000
    2        3.834435   1.000000
    3        5.044782   1.000000
    4       11.243491   0.000000
    5       12.051601   0.000000
    6       13.892182   0.000000
    7       14.036585   0.000000
    8       16.551775   0.000000
 
  0.3333333E+00  0.3333333E+00  0.1111111E+00  0.1097394E-01
    1        0.673544   1.000000
    2        0.690497   1.000000
    3        6.471455   1.000000
    4        7.596060   1.000000
    5       11.086461   0.000000
    6       11.720861   0.000000
    7       13.995528   0.000000
    8       14.709705   0.000000
 
  0.4444444E+00  0.3333333E+00  0.1111111E+00  0.1097394E-01
    1       -1.185940   1.000000
    2        0.166589   1.000000
    3        9.018447   0.655369
    4        9.522680   0.000774
    5       11.229903   0.000000
    6       11.705924   0.000000
    7       12.564942   0.000000
    8       13.442214   0.000000
 
 -0.3333333E+00  0.3333333E+00  0.1111111E+00  0.1097394E-01
    1       -3.075468   1.000000
    2        0.980822   1.000000
    3        6.370164   1.000000
    4       10.170238   0.000000
    5       11.781071   0.000000
    6       15.212569   0.000000
    7       16.536321   0.000000
    8       17.197240   0.000000
 
 -0.2222222E+00  0.3333333E+00  0.1111111E+00  0.2194787E-01
    1       -3.060358   1.000000
    2        2.262946   1.000000
    3        5.195409   1.000000
    4       10.165039   0.000000
    5       11.995268   0.000000
    6       13.715204   0.000000
    7       15.975326   0.000000
    8       16.789702   0.000000
 
 -0.1111111E+00  0.3333333E+00  0.1111111E+00  0.1097394E-01
    1       -2.402906   1.000000
    2        3.703284   1.000000
    3        4.994810   1.000000
    4        8.937063   0.835301
    5       10.795872   0.000000
    6       13.877031   0.000000
    7       14.475803   0.000000
    8       14.884486   0.000000
 
 -0.4444444E+00  0.4444444E+00  0.1111111E+00  0.1097394E-01
    1       -2.008428   1.000000
    2       -0.650634   1.000000
    3        7.362550   1.000000
    4        8.635799   0.999050
    5       12.781170   0.000000
    6       13.946593   0.000000
    7       16.612791   0.000000
    8       16.760986   0.000000
 
 -0.3333333E+00  0.4444444E+00  0.1111111E+00  0.2194787E-01
    1       -2.146035   1.000000
    2        0.546203   1.000000
    3        6.008073   1.000000
    4        8.537913   0.999927
    5       11.956773   0.000000
    6       14.256593   0.000000
    7       16.007339   0.000000
    8       16.740007   0.000000
 
 -0.2222222E+00  0.4444444E+00  0.1111111E+00  0.2194787E-01
    1       -1.645223   1.000000
    2        2.296784   1.000000
    3        5.244890   1.000000
    4        8.288722   1.000000
    5        9.266412   0.087945
    6       13.869919   0.000000
    7       15.423954   0.000000
    8       16.560448   0.000000
 
 -0.1111111E+00  0.4444444E+00  0.1111111E+00  0.1097394E-01
    1       -0.518739   1.000000
    2        4.035514   1.000000
    3        5.486773   1.000000
    4        5.614666   1.000000
    5        9.664236   0.000015
    6       12.126398   0.000000
    7       13.003404   0.000000
    8       16.635906   0.000000
 
 -0.4444444E+00 -0.4444444E+00  0.1111111E+00  0.1097394E-01
    1       -0.942496   1.000000
    2       -0.934972   1.000000
    3        7.128432   1.000000
    4        7.145346   1.000000
    5       11.891541   0.000000
    6       14.885586   0.000000
    7       15.711575   0.000000
    8       16.097926   0.000000
 
 -0.3333333E+00 -0.4444444E+00  0.1111111E+00  0.2194787E-01
    1       -0.594071   1.000000
    2        0.735776   1.000000
    3        6.160503   1.000000
    4        7.328042   1.000000
    5        8.472254   0.999990
    6       13.651924   0.000000
    7       16.446290   0.000000
    8       17.655885   0.000000
 
 -0.2222222E+00 -0.4444444E+00  0.1111111E+00  0.2194787E-01
    1        0.367390   1.000000
    2        2.887677   1.000000
    3        4.961327   1.000000
    4        5.996824   1.000000
    5        8.340658   1.000000
    6       11.871294   0.000000
    7       14.475518   0.000000
    8       17.655665   0.000000
 
 -0.1111111E+00 -0.4444444E+00  0.1111111E+00  0.1097394E-01
    1        1.604105   1.000000
    2        2.523439   1.000000
    3        5.519617   1.000000
    4        6.458982   1.000000
    5        8.789142   0.978375
    6       11.115809   0.000000
    7       11.413154   0.000000
    8       16.856973   0.000000
 
 -0.3333333E+00 -0.3333333E+00  0.1111111E+00  0.1097394E-01
    1        1.469856   1.000000
    2        1.580309   1.000000
    3        4.805387   1.000000
    4        6.909895   1.000000
    5        7.151757   1.000000
    6       11.736452   0.000000
    7       16.134853   0.000000
    8       16.828055   0.000000
 
 -0.2222222E+00 -0.3333333E+00  0.1111111E+00  0.2194787E-01
    1        1.645016   1.000000
    2        3.178833   1.000000
    3        4.395671   1.000000
    4        7.012233   1.000000
    5        8.086332   1.000000
    6       10.564991   0.000000
    7       12.932831   0.000000
    8       15.331851   0.000000
 
 -0.1111111E+00 -0.3333333E+00  0.1111111E+00  0.1097394E-01
    1       -0.419135   1.000000
    2        5.070189   1.000000
    3        7.143297   1.000000
    4        7.552869   1.000000
    5        8.125138   1.000000
    6       10.786389   0.000000
    7       11.062061   0.000000
    8       13.968859   0.000000
 
 -0.2222222E+00 -0.2222222E+00  0.1111111E+00  0.1097394E-01
    1       -0.567377   1.000000
    2        6.101204   1.000000
    3        6.198964   1.000000
    4        7.762850   1.000000
    5        8.514536   0.999963
    6       10.340142   0.000000
    7       11.910457   0.000000
    8       12.461970   0.000000
 
 -0.1111111E+00 -0.2222222E+00  0.1111111E+00  0.1097394E-01
    1       -2.327292   1.000000
    2        7.389923   1.000000
    3        7.847472   1.000000
    4        8.590665   0.999692
    5        9.493402   0.001545
    6       10.590633   0.000000
    7       11.912855   0.000000
    8       12.697315   0.000000
 
 -0.1111111E+00 -0.1111111E+00  0.1111111E+00  0.2743484E-02
    1       -3.626854   1.000000
    2        7.411666   1.000000
    3        7.411671   1.000000
    4        8.105623   1.000000
    5       11.722545   0.000000
    6       12.283392   0.000000
    7       12.359303   0.000000
    8       14.577857   0.000000
 
  0.2222222E+00  0.2222222E+00  0.2222222E+00  0.1097394E-01
    1        1.623842   1.000000
    2        2.867884   1.000000
    3        4.658255   1.000000
    4        4.746579   1.000000
    5       12.315815   0.000000
    6       13.561864   0.000000
    7       14.779879   0.000000
    8       14.806947   0.000000
 
 -0.2222222E+00  0.2222222E+00  0.2222222E+00  0.5486968E-02
    1       -3.382894   1.000000
    2        2.776053   1.000000
    3        4.102509   1.000000
    4        9.973759   0.000000
    5       12.855335   0.000000
    6       15.577645   0.000000
    7       16.112271   0.000000
    8       16.821843   0.000000
 
 -0.3333333E+00  0.3333333E+00  0.2222222E+00  0.1097394E-01
    1       -2.620298   1.000000
    2        1.353726   1.000000
    3        4.359351   1.000000
    4        8.165890   1.000000
    5       13.944739   0.000000
    6       15.539183   0.000000
    7       16.537590   0.000000
    8       18.065296   0.000000
 
 -0.2222222E+00  0.3333333E+00  0.2222222E+00  0.1097394E-01
    1       -2.452150   1.000000
    2        2.331417   1.000000
    3        3.716935   1.000000
    4        8.297220   1.000000
    5       11.787936   0.000000
    6       15.477779   0.000000
    7       17.312894   0.000000
    8       17.360532   0.000000
 
 -0.4444444E+00  0.4444444E+00  0.2222222E+00  0.1097394E-01
    1       -1.561721   1.000000
    2       -0.221896   1.000000
    3        5.316888   1.000000
    4        6.601640   1.000000
    5       14.597890   0.000000
    6       15.066353   0.000000
    7       16.810543   0.000000
    8       17.567943   0.000000
 
 -0.3333333E+00  0.4444444E+00  0.2222222E+00  0.2194787E-01
    1       -1.547335   1.000000
    2        1.065113   1.000000
    3        4.097780   1.000000
    4        6.613899   1.000000
    5       11.446464   0.000000
    6       16.687952   0.000000
    7       17.488188   0.000000
    8       18.998468   0.000000
 
 -0.2222222E+00  0.4444444E+00  0.2222222E+00  0.1097394E-01
    1       -0.897465   1.000000
    2        2.501943   1.000000
    3        3.915592   1.000000
    4        7.068821   1.000000
    5        8.165352   1.000000
    6       15.161661   0.000000
    7       16.430799   0.000000
    8       17.764011   0.000000
 
 -0.4444444E+00 -0.4444444E+00  0.2222222E+00  0.1097394E-01
    1       -0.366361   1.000000
    2       -0.352989   1.000000
    3        5.184155   1.000000
    4        5.203448   1.000000
    5       11.323041   0.000000
    6       17.049188   0.000000
    7       17.972944   0.000000
    8       18.383985   0.000000
 
 -0.3333333E+00 -0.4444444E+00  0.2222222E+00  0.2194787E-01
    1        0.132302   1.000000
    2        1.398966   1.000000
    3        4.418952   1.000000
    4        5.625370   1.000000
    5        7.791861   1.000000
    6       15.373032   0.000000
    7       17.848104   0.000000
    8       18.844411   0.000000
 
 -0.2222222E+00 -0.4444444E+00  0.2222222E+00  0.1097394E-01
    1        1.222426   1.000000
    2        3.147160   1.000000
    3        4.694505   1.000000
    4        4.755651   1.000000
    5        6.786183   1.000000
    6       13.296215   0.000000
    7       14.484271   0.000000
    8       17.763169   0.000000
 
 -0.3333333E+00 -0.3333333E+00  0.2222222E+00  0.1097394E-01
    1        2.181213   1.000000
    2        2.407162   1.000000
    3        4.411275   1.000000
    4        5.358515   1.000000
    5        5.570490   1.000000
    6       13.559441   0.000000
    7       15.708880   0.000000
    8       16.549382   0.000000
 
 -0.2222222E+00 -0.3333333E+00  0.2222222E+00  0.1097394E-01
    1        1.418777   1.000000
    2        4.085538   1.000000
    3        4.955068   1.000000
    4        6.002294   1.000000
    5        6.821263   1.000000
    6       11.980350   0.000000
    7       12.865105   0.000000
    8       14.363129   0.000000
 
 -0.2222222E+00 -0.2222222E+00  0.2222222E+00  0.2743484E-02
    1       -0.716300   1.000000
    2        6.836064   1.000000
    3        6.978190   1.000000
    4        7.561623   1.000000
    5        7.561625   1.000000
    6       11.036935   0.000000
    7       11.674137   0.000000
    8       11.674139   0.000000
 
 -0.3333333E+00  0.3333333E+00  0.3333333E+00  0.5486968E-02
    1       -1.867075   1.000000
    2        1.560786   1.000000
    3        3.001366   1.000000
    4        6.331774   1.000000
    5       14.694889   0.000000
    6       15.123657   0.000000
    7       17.746675   0.000000
    8       19.431744   0.000000
 
 -0.4444444E+00  0.4444444E+00  0.3333333E+00  0.1097394E-01
    1       -0.829338   1.000000
    2        0.447197   1.000000
    3        3.515701   1.000000
    4        4.760151   1.000000
    5       14.730224   0.000000
    6       14.833878   0.000000
    7       18.941717   0.000000
    8       19.931029   0.000000
 
 -0.3333333E+00  0.4444444E+00  0.3333333E+00  0.1097394E-01
    1       -0.663645   1.000000
    2        1.417218   1.000000
    3        2.880084   1.000000
    4        4.914420   1.000000
    5       11.066838   0.000000
    6       17.958147   0.000000
    7       19.077732   0.000000
    8       19.860827   0.000000
 
 -0.4444444E+00 -0.4444444E+00  0.3333333E+00  0.1097394E-01
    1        0.448550   1.000000
    2        0.470294   1.000000
    3        3.525346   1.000000
    4        3.537963   1.000000
    5       10.935752   0.000000
    6       18.068299   0.000000
    7       19.985241   0.000000
    8       20.284531   0.000000
 
 -0.3333333E+00 -0.4444444E+00  0.3333333E+00  0.1097394E-01
    1        1.095186   1.000000
    2        1.896252   1.000000
    3        3.358820   1.000000
    4        4.139218   1.000000
    5        7.479638   1.000000
    6       16.907452   0.000000
    7       18.004844   0.000000
    8       19.047067   0.000000
 
 -0.3333333E+00 -0.3333333E+00  0.3333333E+00  0.2743484E-02
    1        2.647020   1.000000
    2        3.082601   1.000000
    3        4.423153   1.000000
    4        4.423153   1.000000
    5        4.668564   1.000000
    6       15.230182   0.000000
    7       15.563316   0.000000
    8       15.563319   0.000000
 
 -0.4444444E+00  0.4444444E+00  0.4444444E+00  0.5486968E-02
    1        0.142968   1.000000
    2        0.947313   1.000000
    3        2.436457   1.000000
    4        3.230091   1.000000
    5       14.586182   0.000000
    6       14.611312   0.000000
    7       21.012330   0.000000
    8       21.653011   0.000000
 
 -0.4444444E+00 -0.4444444E+00  0.4444444E+00  0.2743484E-02
    1        1.093182   1.000000
    2        1.127755   1.000000
    3        2.597111   1.000000
    4        2.597111   1.000000
    5       10.803141   0.000000
    6       18.209301   0.000000
    7       20.949647   0.000000
    8       21.075679   0.000000
