unknown system                          
           1
    -2.450000    2.450000    1.274000
     2.450000   -2.450000    1.274000
     2.450000    2.450000   -1.274000
   Si
   2
Direct configuration=     1
   0.25000000  0.75000000  0.50000000
   0.00000000  0.00000000  0.00000000
unknown system                          
           1
    -2.435089    2.435089    1.294916
     2.435089   -2.435089    1.294916
     2.435089    2.435089   -1.294916
   Si
   2
Direct configuration=     2
   0.25000000  0.75000000  0.50000000
   0.00000000  0.00000000  0.00000000
unknown system                          
           1
    -2.390357    2.390357    1.357664
     2.390357   -2.390357    1.357664
     2.390357    2.390357   -1.357664
   Si
   2
Direct configuration=     3
   0.25000000  0.75000000  0.50000000
   0.00000000  0.00000000  0.00000000
unknown system                          
           1
    -2.405642    2.405642    1.336223
     2.405642   -2.405642    1.336223
     2.405642    2.405642   -1.336223
   Si
   2
Direct configuration=     4
   0.25000000  0.75000000  0.50000000
   0.00000000  0.00000000  0.00000000
unknown system                          
           1
    -2.403418    2.403418    1.339342
     2.403418   -2.403418    1.339342
     2.403418    2.403418   -1.339342
   Si
   2
Direct configuration=     5
   0.25000000  0.75000000  0.50000000
   0.00000000  0.00000000  0.00000000
unknown system                          
           1
    -2.396888    2.396888    1.348503
     2.396888   -2.396888    1.348503
     2.396888    2.396888   -1.348503
   Si
   2
Direct configuration=     6
   0.25000000  0.75000000  0.50000000
   0.00000000  0.00000000  0.00000000
unknown system                          
           1
    -2.401367    2.401367    1.342219
     2.401367   -2.401367    1.342219
     2.401367    2.401367   -1.342219
   Si
   2
Direct configuration=     7
   0.25000000  0.75000000  0.50000000
   0.00000000  0.00000000  0.00000000
unknown system                          
           1
    -2.402810    2.402810    1.340196
     2.402810   -2.402810    1.340196
     2.402810    2.402810   -1.340196
   Si
   2
Direct configuration=     8
   0.25000000  0.75000000  0.50000000
   0.00000000  0.00000000  0.00000000
unknown system                          
           1
    -2.403039    2.403039    1.339874
     2.403039   -2.403039    1.339874
     2.403039    2.403039   -1.339874
   Si
   2
Direct configuration=     9
   0.25000000  0.75000000  0.50000000
   0.00000000  0.00000000  0.00000000
unknown system                          
           1
    -2.381262    2.381262    1.338744
     2.381262   -2.381262    1.338744
     2.381262    2.381262   -1.338744
   Si
   2
Direct configuration=    10
   0.25000000  0.75000000  0.50000000
   0.00000000  0.00000000  0.00000000
unknown system                          
           1
    -2.393677    2.393677    1.339388
     2.393677   -2.393677    1.339388
     2.393677    2.393677   -1.339388
   Si
   2
Direct configuration=    11
   0.25000000  0.75000000  0.50000000
   0.00000000  0.00000000  0.00000000
unknown system                          
           1
    -2.396189    2.396189    1.339519
     2.396189   -2.396189    1.339519
     2.396189    2.396189   -1.339519
   Si
   2
Direct configuration=    12
   0.25000000  0.75000000  0.50000000
   0.00000000  0.00000000  0.00000000
unknown system                          
           1
    -2.395230    2.395230    1.339469
     2.395230   -2.395230    1.339469
     2.395230    2.395230   -1.339469
   Si
   2
Direct configuration=    13
   0.25000000  0.75000000  0.50000000
   0.00000000  0.00000000  0.00000000
unknown system                          
           1
    -2.394453    2.394453    1.339428
     2.394453   -2.394453    1.339428
     2.394453    2.394453   -1.339428
   Si
   2
Direct configuration=    14
   0.25000000  0.75000000  0.50000000
   0.00000000  0.00000000  0.00000000
unknown system                          
           1
    -2.394065    2.394065    1.339408
     2.394065   -2.394065    1.339408
     2.394065    2.394065   -1.339408
   Si
   2
Direct configuration=    15
   0.25000000  0.75000000  0.50000000
   0.00000000  0.00000000  0.00000000
