unknown system                          
   1.00000000000000     
    -2.425153    2.425153    1.301858
     2.425153   -2.425153    1.301858
     2.425153    2.425153   -1.301858
   Si
     2
Direct
  0.250000  0.750000  0.500000
  0.000000  0.000000  0.000000
 
   32   32   32
 -5.3500     -4.1734     -1.0140      3.1732      7.2296      10.207      11.635      11.580      10.506      9.0375    
  7.5902      6.3090      5.2667      4.4846      3.9515      3.6447      3.5449      3.6447      3.9515      4.4846    
  5.2667      6.3090      7.5902      9.0375      10.506      11.580      11.635      10.207      7.2296      3.1732    
 -1.0141     -4.1735     -4.1735     -4.7835     -3.1156     0.30267      4.4475      8.2002      10.731      11.713    
  11.327      10.093      8.6137      7.2064      5.9892      5.0194      4.3081      3.8396      3.5909      3.5451    
  3.6982      4.0607      4.6539      5.4993      6.6024      7.9315      9.4009      10.834      11.742      11.520    
  9.7790      6.5718      2.4828     -1.4754     -1.0141     -3.1157     -3.1640     -1.1501      2.2837      6.1121    
  9.3205      11.239      11.694      10.967      9.6088      8.1465      6.7968      5.6565      4.7677      4.1319    
  3.7297      3.5390      3.5456      3.7490      4.1628      4.8089      5.7068      6.8559      8.2154      9.6888    
  11.068      11.834      11.423      9.5398      6.3393      2.4828      3.1732     0.30266     -1.1501     -.71801    
  1.4487      4.6491      7.9220      10.408      11.619      11.532      10.504      9.0784      7.6545      6.3777    
  5.3246      4.5218      3.9627      3.6259      3.4906      3.5460      3.7950      4.2530      4.9422      5.8794    
  7.0579      8.4287      9.8884      11.209      11.873      11.386      9.5398      6.5718      7.2296      4.4476    
  2.2837      1.4487      2.2216      4.3321      7.0805      9.6256      11.295      11.788      11.207      9.9572    
  8.5232      7.1570      5.9660      5.0062      4.2907      3.8065      3.5317      3.4475      3.5462      3.8338    
  4.3273      5.0481      6.0092      7.1984      8.5610      9.9906      11.255      11.873      11.423      9.7790    
  10.207      8.2002      6.1121      4.6491      4.3321      5.2750      7.1381      9.2780      11.012      11.864    
  11.705      10.735      9.3679      7.9650      6.6738      5.5773      4.7128      4.0824      3.6687      3.4501    
  3.4106      3.5460      3.8642      4.3827      5.1213      6.0896      7.2706      8.6060      9.9906      11.209    
  11.834      11.520      11.635      10.731      9.3205      7.9220      7.0805      7.1381      8.0825      9.5555    
  11.012      11.944      12.065      11.383      10.163      8.7743      7.4268      6.2237      5.2258      4.4545    
  3.9034      3.5532      3.3836      3.3816      3.5455      3.8848      4.4168      5.1589      6.1169      7.2706    
  8.5610      9.8884      11.068      11.742      11.580      11.713      11.239      10.408      9.6256      9.2780    
  9.5555      10.365      11.373      12.157      12.381      11.919      10.884      9.5616      8.2039      6.9314    
  5.8239      4.9234      4.2390      3.7590      3.4636      3.3344      3.3614      3.5449      3.8953      4.4284    
  5.1589      6.0896      7.1984      8.4287      9.6888      10.834      10.506      11.327      11.694      11.619    
  11.295      11.012      11.012      11.373      11.962      12.503      12.700      12.371      11.514      10.305    
  8.9837      7.6843      6.4992      5.4886      4.6795      4.0726      3.6533      3.4024      3.3042      3.3510    
  3.5447      3.8953      4.4168      5.1213      6.0092      7.0579      8.2154      9.4009      9.0375      10.093    
  10.967      11.532      11.788      11.864      11.944      12.157      12.503      12.846      12.981      12.732    
  12.035      10.977      9.7402      8.4624      7.2398      6.1471      5.2287      4.5010      3.9594      3.5887    
  3.3713      3.2940      3.3510      3.5449      3.8848      4.3827      5.0481      5.8794      6.8559      7.9315    
  7.5902      8.6136      9.6087      10.504      11.207      11.705      12.065      12.381      12.700      12.981    
  13.107      12.943      12.411      11.535      10.438      9.2371      8.0269      6.8903      5.8876      5.0517    
  4.3923      3.9023      3.5670      3.3713      3.3042      3.3614      3.5455      3.8642      4.3273      4.9422    
  5.7068      6.6024      6.3090      7.2064      8.1465      9.0784      9.9572      10.735      11.383      11.919    
  12.371      12.732      12.943      12.916      12.580      11.929      11.030      9.9681      8.8299      7.7001    
  6.6500      5.7289      4.9622      4.3558      3.9023      3.5887      3.4024      3.3344      3.3816      3.5460    
  3.8338      4.2530      4.8089      5.4993      5.2667      5.9892      6.7968      7.6545      8.5232      9.3679    
  10.163      10.884      11.514      12.035      12.411      12.580      12.486      12.105      11.460      10.604    
  9.6048      8.5443      7.4980      6.5278      5.6755      4.9622      4.3923      3.9594      3.6533      3.4636    
  3.3836      3.4106      3.5462      3.7950      4.1628      4.6539      4.4846      5.0194      5.6565      6.3777    
  7.1570      7.9650      8.7742      9.5616      10.305      10.977      11.535      11.929      12.105      12.025    
  11.679      11.086      10.297      9.3758      8.3974      7.4297      6.5278      5.7289      5.0517      4.5010    
  4.0726      3.7590      3.5532      3.4501      3.4475      3.5460      3.7490      4.0607      3.9515      4.3081    
  4.7677      5.3246      5.9660      6.6738      7.4268      8.2039      8.9837      9.7402      10.438      11.030    
  11.460      11.679      11.650      11.365      10.846      10.136      9.2977      8.3974      7.4980      6.6500    
  5.8876      5.2287      4.6795      4.2390      3.9034      3.6687      3.5317      3.4906      3.5456      3.6982    
  3.6447      3.8396      4.1319      4.5218      5.0062      5.5773      6.2237      6.9314      7.6843      8.4624    
  9.2371      9.9681      10.604      11.086      11.365      11.406      11.200      10.763      10.136      9.3758    
  8.5443      7.7001      6.8903      6.1471      5.4886      4.9234      4.4545      4.0824      3.8065      3.6259    
  3.5390      3.5451      3.5449      3.5910      3.7298      3.9627      4.2907      4.7129      5.2258      5.8239    
  6.4992      7.2398      8.0269      8.8299      9.6048      10.297      10.846      11.200      11.322      11.200    
  10.846      10.297      9.6048      8.8299      8.0269      7.2398      6.4992      5.8239      5.2258      4.7128    
  4.2907      3.9627      3.7297      3.5909      3.6447      3.5452      3.5391      3.6259      3.8066      4.0824    
  4.4545      4.9234      5.4886      6.1471      6.8903      7.7001      8.5443      9.3758      10.136      10.763    
  11.200      11.406      11.365      11.086      10.604      9.9681      9.2371      8.4624      7.6843      6.9314    
  6.2237      5.5773      5.0062      4.5218      4.1319      3.8396      3.9515      3.6982      3.5456      3.4907    
  3.5317      3.6687      3.9034      4.2390      4.6795      5.2287      5.8876      6.6500      7.4980      8.3974    
  9.2977      10.136      10.846      11.365      11.650      11.679      11.460      11.030      10.438      9.7402    
  8.9837      8.2039      7.4268      6.6738      5.9660      5.3246      4.7677      4.3081      4.4846      4.0608    
  3.7490      3.5461      3.4475      3.4501      3.5532      3.7590      4.0726      4.5010      5.0518      5.7289    
  6.5278      7.4297      8.3974      9.3758      10.297      11.086      11.679      12.025      12.105      11.929    
  11.535      10.977      10.305      9.5616      8.7743      7.9650      7.1570      6.3777      5.6565      5.0194    
  5.2667      4.6540      4.1628      3.7950      3.5462      3.4107      3.3836      3.4636      3.6532      3.9594    
  4.3923      4.9622      5.6755      6.5278      7.4980      8.5443      9.6048      10.604      11.460      12.105    
  12.486      12.580      12.411      12.035      11.514      10.884      10.163      9.3679      8.5232      7.6545    
  6.7968      5.9892      6.3090      5.4994      4.8089      4.2530      3.8338      3.5460      3.3816      3.3344    
  3.4024      3.5887      3.9022      4.3558      4.9622      5.7289      6.6500      7.7001      8.8299      9.9681    
  11.030      11.929      12.580      12.916      12.943      12.732      12.371      11.919      11.383      10.735    
  9.9572      9.0784      8.1465      7.2064      7.5902      6.6024      5.7068      4.9423      4.3274      3.8641    
  3.5454      3.3613      3.3041      3.3713      3.5670      3.9022      4.3923      5.0518      5.8876      6.8903    
  8.0269      9.2371      10.438      11.535      12.411      12.943      13.107      12.981      12.700      12.381    
  12.065      11.705      11.207      10.504      9.6088      8.6137      9.0375      7.9315      6.8559      5.8794    
  5.0481      4.3827      3.8848      3.5449      3.3509      3.2940      3.3713      3.5887      3.9594      4.5010    
  5.2287      6.1471      7.2398      8.4624      9.7402      10.977      12.035      12.732      12.981      12.846    
  12.503      12.157      11.944      11.864      11.788      11.532      10.967      10.093      10.506      9.4009    
  8.2154      7.0579      6.0091      5.1213      4.4168      3.8952      3.5447      3.3509      3.3041      3.4024    
  3.6532      4.0726      4.6795      5.4886      6.4992      7.6843      8.9837      10.305      11.514      12.371    
  12.700      12.503      11.962      11.373      11.012      11.012      11.295      11.619      11.694      11.327    
  11.580      10.834      9.6888      8.4287      7.1985      6.0895      5.1588      4.4283      3.8952      3.5449    
  3.3613      3.3344      3.4636      3.7590      4.2390      4.9234      5.8239      6.9314      8.2039      9.5616    
  10.884      11.919      12.381      12.157      11.373      10.365      9.5555      9.2780      9.6256      10.408    
  11.239      11.713      11.635      11.742      11.068      9.8884      8.5611      7.2706      6.1168      5.1588    
  4.4168      3.8848      3.5454      3.3816      3.3836      3.5532      3.9034      4.4545      5.2258      6.2237    
  7.4268      8.7742      10.163      11.383      12.065      11.944      11.012      9.5555      8.0825      7.1381    
  7.0805      7.9220      9.3205      10.731      10.207      11.520      11.834      11.209      9.9906      8.6060    
  7.2706      6.0895      5.1213      4.3827      3.8641      3.5460      3.4107      3.4501      3.6687      4.0824    
  4.7129      5.5773      6.6738      7.9650      9.3679      10.735      11.705      11.864      11.012      9.2780    
  7.1381      5.2750      4.3321      4.6491      6.1121      8.2002      7.2296      9.7790      11.423      11.873    
  11.255      9.9906      8.5611      7.1985      6.0091      5.0481      4.3274      3.8338      3.5462      3.4475    
  3.5317      3.8066      4.2907      5.0062      5.9660      7.1570      8.5232      9.9572      11.207      11.788    
  11.295      9.6256      7.0805      4.3321      2.2216      1.4487      2.2837      4.4475      3.1732      6.5718    
  9.5398      11.386      11.873      11.209      9.8884      8.4287      7.0579      5.8794      4.9423      4.2530    
  3.7950      3.5461      3.4907      3.6259      3.9627      4.5218      5.3246      6.3777      7.6545      9.0784    
  10.504      11.532      11.619      10.408      7.9220      4.6491      1.4487     -.71801     -1.1501     0.30267    
 -1.0140      2.4828      6.3393      9.5398      11.423      11.834      11.068      9.6888      8.2154      6.8559    
  5.7068      4.8089      4.1628      3.7490      3.5456      3.5391      3.7298      4.1319      4.7677      5.6565    
  6.7968      8.1465      9.6087      10.967      11.694      11.239      9.3205      6.1121      2.2837     -1.1501    
 -3.1640     -3.1156     -4.1734     -1.4754      2.4828      6.5718      9.7790      11.520      11.742      10.834    
  9.4009      7.9315      6.6024      5.4994      4.6540      4.0608      3.6982      3.5452      3.5910      3.8396    
  4.3081      5.0194      5.9892      7.2064      8.6136      10.093      11.327      11.713      10.731      8.2002    
  4.4476     0.30266     -3.1157     -4.7835     -4.1734     -3.3093     -.52646      3.3253      7.1574      10.037    
  11.464      11.453      10.419      8.9632      7.5129      6.2198      5.1606      4.3595      3.8060      3.4768    
  3.3511      3.4195      3.6877      4.1740      4.9025      5.8882      7.1173      8.5270      9.9916      11.168    
  11.460      10.387      7.8283      4.1637     0.24329     -2.8485     -3.3093     -4.1735     -2.8486     0.24331    
  4.1637      7.8282      10.387      11.460      11.168      9.9916      8.5269      7.1173      5.8882      4.9025    
  4.1740      3.6876      3.4195      3.3511      3.4768      3.8059      4.3594      5.1607      6.2198      7.5128    
  8.9631      10.419      11.453      11.464      10.037      7.1573      3.3254     -.52638     -.43261     -2.7467    
 -3.1156     -1.4319      1.7602      5.4914      8.7441      10.798      11.410      10.806      9.5057      8.0562    
  6.7031      5.5509      4.6475      3.9967      3.5797      3.3731      3.3614      3.5429      3.9302      4.5458    
  5.4117      6.5322      7.8737      9.3480      10.775      11.674      11.475      9.8397      6.8568      3.1123    
  3.5627     0.51352     -1.2406     -1.1502     0.73751      3.8004      7.0999      9.7398      11.161      11.265    
  10.362      8.9819      7.5678      6.2858      5.2208      4.4051      3.8339      3.4858      3.3391      3.3816    
  3.6153      4.0555      4.7255      5.6449      6.8121      8.1843      9.6653      11.051      11.846      11.532    
  9.8548      6.9875      7.5352      4.6109      2.1753     0.99636      1.4487      3.3570      6.0736      8.7471    
  10.644      11.380      10.991      9.8442      8.4399      7.0789      5.8808      4.9097      4.1835      3.6907    
  3.4089      3.3184      3.4106      3.6910      4.1768      4.8911      5.8501      7.0462      8.4300      9.9001    
  11.242      11.976      11.652      10.094      10.519      8.4124      6.0996      4.3158      3.6566      4.3320    
  6.0784      8.2756      10.204      11.313      11.391      10.582      9.2824      7.8981      6.6071      5.5021    
  4.6279      3.9900      3.5718      3.3512      3.3114      3.4474      3.7672      4.2892      5.0351      6.0175    
  7.2234      8.5983      10.040      11.340      12.061      11.823      12.007      11.050      9.4764      7.8091    
  6.6401      6.3922      7.1380      8.5714      10.145      11.296      11.660      11.177      10.068      8.7139    
  7.3760      6.1690      5.1628      4.3845      3.8301      3.4803      3.3143      3.3184      3.4906      3.8410    
  4.3880      5.1512      6.1390      7.3342      8.6798      10.076      11.337      12.085      12.026      12.152    
  11.582      10.555      9.4968      8.8484      8.8769      9.5555      10.579      11.503      11.932      11.669    
  10.771      9.5042      8.1644      6.8939      5.7807      4.8739      4.1866      3.7082      3.4187      3.2992    
  3.3391      3.5389      3.9098      4.4692      5.2338      6.2084      7.3725      8.6694      10.006      11.228    
  11.006      11.861      12.197      12.006      11.481      10.942      10.688      10.860      11.373      11.956    
  12.284      12.115      11.391      10.251      8.9512      7.6587      6.4712      5.4557      4.6443      4.0397    
  3.6277      3.3887      3.3065      3.3731      3.5908      3.9709      4.5291      5.2790      6.2220      7.3358    
  8.5667      9.8299      9.5563      10.674      11.572      12.094      12.232      12.123      11.984      11.995    
  12.204      12.503      12.680      12.525      11.927      10.931      9.7133      8.4431      7.2206      6.1249    
  5.2052      4.4806      3.9476      3.5905      3.3913      3.3362      3.4195      3.6446      4.0219      4.5650    
  5.2842      6.1785      7.2256      8.3762      8.1070      9.1968      10.244      11.155      11.816      12.205    
  12.407      12.547      12.710      12.890      12.981      12.838      12.351      11.509      10.419      9.2202    
  8.0094      6.8711      5.8682      5.0368      4.3873      3.9128      3.5978      3.4264      3.3874      3.4768    
  3.6981      4.0604      4.5747      5.2489      6.0801      7.0472      6.8092      7.7718      8.7675      9.7380    
  10.628      11.367      11.924      12.332      12.644      12.883      13.011      12.943      12.595      11.937    
  11.023      9.9519      8.8080      7.6753      6.6258      5.7105      4.9556      4.3669      3.9361      3.6494    
  3.4933      3.4588      3.5430      3.7490      4.0844      4.5578      5.1747      5.9313      5.7396      6.5233    
  7.3863      8.2873      9.1805      10.025      10.786      11.434      11.960      12.369      12.643      12.733    
  12.580      12.152      11.469      10.587      9.5735      8.5058      7.4593      6.4958      5.6572      4.9642    
  4.4201      4.0174      3.7444      3.5903      3.5479      3.6154      3.7950      4.0925      4.5146      5.0648    
  4.9249      5.5144      6.2030      6.9678      7.7772      8.5960      9.3921      10.140      10.819      11.405    
  11.867      12.167      12.258      12.105      11.701      11.068      10.251      9.3165      8.3348      7.3735    
  6.4868      5.7108      5.0630      4.5463      4.1551      3.8804      3.7144      3.6518      3.6911      3.8339    
  4.0843      4.4472      4.3589      4.7616      5.2660      5.8629      6.5351      7.2594      8.0101      8.7630    
  9.4956      10.185      10.800      11.301      11.642      11.778      11.679      11.339      10.781      10.049    
  9.2028      8.3072      7.4235      6.6005      5.8707      5.2502      4.7430      4.3461      4.0541      3.8621    
  3.7668      3.7672      3.8642      4.0604      4.0219      4.2540      4.5826      5.0059      5.5177      6.1062    
  6.7558      7.4489      8.1673      8.8911      9.5947      10.243      10.791      11.188      11.389      11.365    
  11.110      10.642      10.002      9.2433      8.4272      7.6094      6.8347      6.1335      5.5218      5.0058    
  4.5858      4.2606      4.0287      3.8890      3.8411      3.8849      3.8953      3.9710      4.1375      4.3957    
  4.7449      5.1815      5.6986      6.2871      6.9361      7.6327      8.3588      9.0872      9.7790      10.385    
  10.852      11.134      11.200      11.039      10.665      10.116      9.4388      8.6912      7.9252      7.1827    
  6.4924      5.8710      5.3276      4.8672      4.4934      4.2087      4.0141      3.9098      3.9709      3.8954    
  3.9098      4.0141      4.2087      4.4934      4.8672      5.3276      5.8710      6.4924      7.1827      7.9252    
  8.6912      9.4388      10.116      10.665      11.039      11.200      11.134      10.852      10.385      9.7790    
  9.0872      8.3588      7.6328      6.9361      6.2871      5.6986      5.1815      4.7450      4.3957      4.1374    
  4.2540      4.0219      3.8849      3.8410      3.8891      4.0287      4.2606      4.5858      5.0058      5.5219    
  6.1335      6.8347      7.6093      8.4272      9.2434      10.002      10.642      11.110      11.365      11.389    
  11.188      10.791      10.243      9.5948      8.8911      8.1672      7.4489      6.7558      6.1062      5.5177    
  5.0059      4.5826      4.7616      4.3589      4.0603      3.8642      3.7673      3.7668      3.8620      4.0541    
  4.3461      4.7430      5.2502      5.8707      6.6005      7.4235      8.3072      9.2028      10.049      10.781    
  11.339      11.679      11.778      11.642      11.301      10.800      10.185      9.4956      8.7630      8.0102    
  7.2593      6.5350      5.8629      5.2661      5.5143      4.9249      4.4472      4.0843      3.8339      3.6910    
  3.6518      3.7144      3.8804      4.1551      4.5463      5.0630      5.7108      6.4868      7.3734      8.3348    
  9.3165      10.251      11.068      11.701      12.105      12.258      12.167      11.867      11.405      10.819    
  10.140      9.3921      8.5960      7.7772      6.9678      6.2030      6.5233      5.7396      5.0649      4.5145    
  4.0925      3.7949      3.6153      3.5479      3.5902      3.7444      4.0174      4.4201      4.9643      5.6572    
  6.4958      7.4593      8.5059      9.5735      10.587      11.469      12.152      12.580      12.732      12.643    
  12.369      11.960      11.434      10.786      10.025      9.1805      8.2873      7.3862      7.7718      6.8092    
  5.9313      5.1746      4.5577      4.0843      3.7490      3.5429      3.4588      3.4933      3.6494      3.9361    
  4.3669      4.9557      5.7105      6.6258      7.6753      8.8080      9.9519      11.023      11.937      12.595    
  12.943      13.011      12.883      12.644      12.332      11.924      11.367      10.628      9.7379      8.7675    
  9.1968      8.1070      7.0471      6.0800      5.2489      4.5747      4.0603      3.6981      3.4768      3.3874    
  3.4264      3.5978      3.9128      4.3873      5.0368      5.8682      6.8710      8.0095      9.2202      10.419    
  11.509      12.351      12.838      12.981      12.890      12.710      12.547      12.407      12.205      11.816    
  11.155      10.244      10.674      9.5562      8.3762      7.2256      6.1785      5.2842      4.5649      4.0219    
  3.6446      3.4195      3.3362      3.3913      3.5906      3.9476      4.4806      5.2052      6.1249      7.2207    
  8.4431      9.7133      10.931      11.927      12.525      12.680      12.503      12.204      11.995      11.984    
  12.123      12.232      12.094      11.572      11.861      11.006      9.8299      8.5667      7.3358      6.2219    
  5.2790      4.5291      3.9709      3.5908      3.3731      3.3065      3.3888      3.6277      4.0397      4.6443    
  5.4558      6.4712      7.6587      8.9512      10.251      11.391      12.115      12.284      11.956      11.373    
  10.860      10.688      10.942      11.482      12.006      12.197      12.152      12.026      11.228      10.006    
  8.6694      7.3725      6.2084      5.2338      4.4692      3.9098      3.5389      3.3391      3.2992      3.4188    
  3.7083      4.1866      4.8739      5.7807      6.8939      8.1644      9.5042      10.771      11.669      11.932    
  11.503      10.579      9.5555      8.8769      8.8484      9.4968      10.555      11.582      11.050      12.007    
  12.084      11.337      10.076      8.6798      7.3342      6.1390      5.1512      4.3881      3.8410      3.4906    
  3.3184      3.3143      3.4803      3.8301      4.3845      5.1628      6.1691      7.3760      8.7139      10.068    
  11.177      11.660      11.296      10.144      8.5715      7.1381      6.3923      6.6401      7.8091      9.4764    
  8.4125      10.518      11.823      12.061      11.340      10.040      8.5983      7.2234      6.0175      5.0351    
  4.2892      3.7672      3.4474      3.3115      3.3512      3.5718      3.9900      4.6280      5.5022      6.6071    
  7.8981      9.2824      10.582      11.391      11.313      10.204      8.2757      6.0785      4.3321      3.6567    
  4.3158      6.0997      4.6109      7.5352      10.094      11.652      11.976      11.242      9.9001      8.4301    
  7.0463      5.8501      4.8911      4.1769      3.6910      3.4107      3.3184      3.4089      3.6908      4.1836    
  4.9097      5.8808      7.0790      8.4399      9.8441      10.991      11.380      10.644      8.7472      6.0736    
  3.3570      1.4489     0.99654      2.1754     0.51353      3.5627      6.9876      9.8548      11.532      11.846    
  11.051      9.6654      8.1843      6.8120      5.6449      4.7256      4.0556      3.6153      3.3816      3.3391    
  3.4858      3.8338      4.4050      5.2208      6.2858      7.5678      8.9818      10.361      11.265      11.161    
  9.7398      7.0999      3.8005     0.73767     -1.1501     -1.2405     -2.7466     -.43250      3.1123      6.8567    
  9.8397      11.475      11.674      10.775      9.3480      7.8738      6.5323      5.4117      4.5458      3.9302    
  3.5430      3.3615      3.3731      3.5797      3.9967      4.6475      5.5509      6.7030      8.0562      9.5058    
  10.806      11.410      10.797      8.7441      5.4915      1.7602     -1.4319     -3.1155     -1.0138     -.43244    
  1.8085      5.0033      8.2080      10.592      11.699      11.525      10.440      8.9870      7.5459      6.2566    
  5.1937      4.3814      3.8106      3.4587      3.3042      3.3361      3.5577      3.9854      4.6423      5.5463    
  6.6918      8.0299      9.4567      10.737      11.360      10.852      9.0310      6.1558      2.9156     0.24344    
 -.52630     -1.4753     -.52629      2.0104      5.3359      8.4846      10.675      11.536      11.158      9.9712    
  8.5216      7.1245      5.9007      4.9126      4.1753      3.6747      3.3874      3.2940      3.3874      3.6747    
  4.1753      4.9127      5.9007      7.1245      8.5216      9.9712      11.158      11.536      10.675      8.4846    
  5.3359      2.0104      1.8085     -.43245     -1.0138     0.24345      2.9156      6.1558      9.0310      10.852    
  11.360      10.738      9.4567      8.0299      6.6918      5.5463      4.6423      3.9854      3.5578      3.3361    
  3.3042      3.4587      3.8106      4.3814      5.1937      6.2566      7.5459      8.9870      10.440      11.525    
  11.699      10.592      8.2080      5.0034      5.2239      2.3470     0.51364     0.30279      1.7603      4.3799    
  7.3179      9.7255      11.041      11.132      10.259      8.9160      7.5288      6.2634      5.2063      4.3921    
  3.8180      3.4633      3.3065      3.3345      3.5479      3.9609      4.5963      5.4750      6.6003      7.9392    
  9.4076      10.847      11.841      11.879      10.662      8.2723      8.6846      5.9723      3.5494      2.1753    
  2.2838      3.8005      6.1776      8.6254      10.422      11.157      10.818      9.7294      8.3673      7.0347    
  5.8537      4.8919      4.1698      3.6779      3.3942      3.2992      3.3836      3.6517      4.1202      4.8119    
  5.7451      6.9170      8.2870      9.7646      11.179      12.108      12.092      10.903      11.290      9.3866    
  7.1376      5.2409      4.3158      4.6491      6.0735      8.0437      9.8689      10.983      11.128      10.404    
  9.1684      7.8261      6.5631      5.4757      4.6125      3.9820      3.5690      3.3521      3.3143      3.4501    
  3.7668      4.2826      5.0196      5.9922      7.1921      8.5724      10.039      11.421      12.317      12.328    
  12.554      11.760      10.266      8.5447      7.1796      6.6400      7.0804      8.2755      9.7249      10.868    
  11.304      10.922      9.9028      8.6068      7.3089      6.1288      5.1410      4.3764      3.8334      3.4941    
  3.3380      3.3513      3.5317      3.8890      4.4419      5.2104      6.2048      7.4116      8.7798      10.216    
  11.558      12.450      12.484      12.724      12.226      11.180      9.9858      9.1004      8.8483      9.2779    
  10.144      11.025      11.504      11.341      10.548      9.3559      8.0667      6.8329      5.7461      4.8596    
  4.1897      3.7280      3.4549      3.3521      3.4090      3.6259      4.0142      4.5917      5.3757      6.3724    
  7.5638      8.8971      10.282      11.578      11.469      12.395      12.785      12.592      11.979      11.259    
  10.762      10.688      11.012      11.503      11.837      11.742      11.116      10.060      8.8164      7.5687    
  6.4156      5.4274      4.6397      4.0576      3.6682      3.4525      3.3943      3.4859      3.7297      4.1375    
  4.7255      5.5077      6.4862      7.6399      8.9164      10.232      10.065      11.230      12.165      12.692    
  12.776      12.538      12.204      11.989      11.994      12.157      12.284      12.154      11.625      10.702    
  9.5396      8.3168      7.1346      6.0728      5.1833      4.4876      3.9834      3.6558      3.4870      3.4635    
  3.5797      3.8396      4.2541      4.8373      5.5997      6.5398      7.6350      8.8354      8.6574      9.7898    
  10.868      11.789      12.419      12.723      12.778      12.728      12.695      12.710      12.700      12.525    
  12.058      11.261      10.212      9.0539      7.8843      6.7844      5.8178      5.0217      4.4076      3.9692    
  3.6912      3.5578      3.5579      3.6877      3.9515      4.3590      4.9216      5.6466      6.5299      7.5486    
  7.3850      8.3909      9.4184      10.403      11.280      11.967      12.422      12.682      12.821      12.890    
  12.883      12.732      12.351      11.694      10.794      9.7474      8.6381      7.5438      6.5345      5.6603    
  4.9477      4.4023      4.0157      3.7740      3.6633      3.6749      3.8060      4.0608      4.4472      4.9741    
  5.6458      6.4566      6.3236      7.1524      8.0495      8.9689      9.8589      10.672      11.367      11.906    
  12.292      12.545      12.671      12.643      12.411      11.937      11.232      10.351      9.3576      8.3219    