unknown system                          
   1.00000000000000     
    -2.422030    2.422030    1.305359
     2.422030   -2.422030    1.305359
     2.422030    2.422030   -1.305359
   Si
     2
Direct
  0.250000  0.750000  0.500000
 -0.000000 -0.000000 -0.000000
 
   32   32   32
 -.53581778047E+01 -.41942307123E+01 -.10625682862E+01 0.31053845625E+01 0.71731698320E+01
 0.10199007496E+02 0.11701368731E+02 0.11719639816E+02 0.10694514458E+02 0.92399336994E+01
 0.77889342764E+01 0.64940123704E+01 0.54329797328E+01 0.46319096849E+01 0.40833454497E+01
 0.37666317787E+01 0.36634261548E+01 0.37666361420E+01 0.40833253912E+01 0.46318691288E+01
 0.54329550446E+01 0.64940097602E+01 0.77889267413E+01 0.92399184831E+01 0.10694513864E+02
 0.11719648922E+02 0.11701363387E+02 0.10198998448E+02 0.71731857358E+01 0.31054087961E+01
 -.10625766436E+01 -.41942598050E+01 -.41942598050E+01 -.47664351959E+01 -.30897640426E+01
 0.31284457789E+00 0.44381431148E+01 0.81895896491E+01 0.10747520094E+02 0.11778656043E+02
 0.11443684656E+02 0.10244857440E+02 0.87776153083E+01 0.73701338364E+01 0.61442569875E+01
 0.51618747825E+01 0.44380010113E+01 0.39601569776E+01 0.37073673648E+01 0.36636862423E+01
 0.38256045290E+01 0.42036654508E+01 0.48181134879E+01 0.56881777769E+01 0.68150782403E+01
 0.81616395368E+01 0.96362713126E+01 0.11048433328E+02 0.11892137376E+02 0.11576008275E+02
 0.97433217515E+01 0.64771487016E+01 0.23785575477E+01 -.15464956483E+01 -.10625766436E+01
 -.30897875120E+01 -.30813201181E+01 -.10499083701E+01 0.23647608575E+01 0.61586878418E+01
 0.93426858819E+01 0.11261581181E+02 0.11741194487E+02 0.11048379427E+02 0.97166090543E+01
 0.82683956612E+01 0.69234377023E+01 0.57809288887E+01 0.48863485167E+01 0.42446061687E+01
 0.38393513010E+01 0.36501762637E+01 0.36641802464E+01 0.38816526601E+01 0.43161096577E+01
 0.49886022027E+01 0.59158933455E+01 0.70926793967E+01 0.84716455967E+01 0.99501668848E+01
 0.11300056406E+02 0.11986040074E+02 0.11468520271E+02 0.94859215056E+01 0.62299097919E+01
 0.23785575477E+01 0.31054087961E+01 0.31284002729E+00 -.10499224344E+01 -.55668948646E+00
 0.16195634020E+01 0.47824919538E+01 0.79963319879E+01 0.10431636954E+02 0.11620134637E+02
 0.11539788786E+02 0.10536527994E+02 0.91374556390E+01 0.77327666335E+01 0.64672974622E+01
 0.54190750529E+01 0.46176464836E+01 0.40592619943E+01 0.37252722050E+01 0.35969382930E+01
 0.36647241484E+01 0.39323329193E+01 0.44155283307E+01 0.51353814573E+01 0.61054819382E+01
 0.73138680527E+01 0.87045485670E+01 0.10167457915E+02 0.11449371600E+02 0.12025745708E+02
 0.11426955786E+02 0.94859215056E+01 0.64771487016E+01 0.71731857358E+01 0.44381582347E+01
 0.23647595707E+01 0.16195588461E+01 0.24398020559E+01 0.45364615139E+01 0.72202042284E+01
 0.96807287784E+01 0.11279719125E+02 0.11736374540E+02 0.11157702755E+02 0.99339953326E+01
 0.85322123080E+01 0.71923331150E+01 0.60202124820E+01 0.50728116398E+01 0.43656146645E+01
 0.38884670065E+01 0.36219075849E+01 0.35494350861E+01 0.36649263451E+01 0.39751976431E+01
 0.44974986965E+01 0.52518361973E+01 0.62479148071E+01 0.74677105837E+01 0.88490277419E+01
 0.10278465522E+02 0.11498820718E+02 0.12025745708E+02 0.11468520271E+02 0.97433217515E+01
 0.10198998448E+02 0.81895910057E+01 0.61586912099E+01 0.47824940200E+01 0.45364652584E+01
 0.54973735902E+01 0.73144566726E+01 0.93625562218E+01 0.10994179113E+02 0.11769465963E+02
 0.11576290260E+02 0.10616924908E+02 0.92876825648E+01 0.79254749801E+01 0.66688716427E+01
 0.55992562862E+01 0.47545704766E+01 0.41389442104E+01 0.37379172583E+01 0.35324692439E+01
 0.35089649275E+01 0.36646461629E+01 0.40086443683E+01 0.45585520104E+01 0.53324831462E+01
 0.63361966534E+01 0.75466532119E+01 0.88980653294E+01 0.10278465522E+02 0.11449371600E+02
 0.11986040074E+02 0.11576008275E+02 0.11701363387E+02 0.10747507082E+02 0.93426761784E+01
 0.79963284228E+01 0.72202080453E+01 0.73144638648E+01 0.82387445367E+01 0.96341176756E+01
 0.10980849941E+02 0.11808496213E+02 0.11861911843E+02 0.11165029429E+02 0.99760190707E+01
 0.86396278954E+01 0.73425978178E+01 0.61829164545E+01 0.52197563650E+01 0.44750628775E+01
 0.39446562416E+01 0.36120062312E+01 0.34596801812E+01 0.34770352019E+01 0.36640874610E+01
 0.40314118392E+01 0.45961038593E+01 0.53737500714E+01 0.63661568582E+01 0.75466532119E+01
 0.88490277419E+01 0.10167457915E+02 0.11300056406E+02 0.11892137376E+02 0.11719648922E+02
 0.11778655408E+02 0.11261571119E+02 0.10431622303E+02 0.96807185176E+01 0.93625580576E+01
 0.96341256496E+01 0.10385607943E+02 0.11293507090E+02 0.11965179072E+02 0.12100273451E+02
 0.11598541231E+02 0.10579457651E+02 0.93135154403E+01 0.80202326987E+01 0.68082374998E+01
 0.57528658904E+01 0.48943408851E+01 0.42425710108E+01 0.37882351042E+01 0.35144402485E+01
 0.34058909840E+01 0.34548319059E+01 0.36634870534E+01 0.40429384165E+01 0.46088177003E+01
 0.53737500714E+01 0.63361966534E+01 0.74677105837E+01 0.87045485670E+01 0.99501668848E+01
 0.11048433328E+02 0.10694513864E+02 0.11443693443E+02 0.11741198265E+02 0.11620125427E+02
 0.11279701934E+02 0.10994167582E+02 0.10980852066E+02 0.11293514750E+02 0.11796310872E+02
 0.12229580752E+02 0.12329699423E+02 0.11942885789E+02 0.11084975115E+02 0.99288468466E+01
 0.86820072792E+01 0.74589363798E+01 0.63441157741E+01 0.53934944795E+01 0.46326886625E+01
 0.40634404460E+01 0.36738080929E+01 0.34478418168E+01 0.33728016584E+01 0.34434459685E+01
 0.36632748753E+01 0.40429384165E+01 0.45961038593E+01 0.53324831462E+01 0.62479148071E+01
 0.73138680527E+01 0.84716455967E+01 0.96362713126E+01 0.92399184831E+01 0.10244851435E+02
 0.11048379989E+02 0.11539789702E+02 0.11736370812E+02 0.11769456387E+02 0.11808487360E+02
 0.11965179427E+02 0.12229587075E+02 0.12472262683E+02 0.12508964580E+02 0.12191494501E+02
 0.11479608951E+02 0.10463764067E+02 0.93062697384E+01 0.81165767261E+01 0.69813328177E+01
 0.59675798625E+01 0.51159166530E+01 0.44416696032E+01 0.39418660429E+01 0.36040584092E+01
 0.34140878217E+01 0.33616661032E+01 0.34434459685E+01 0.36634870534E+01 0.40314118392E+01
 0.45585520104E+01 0.52518361973E+01 0.61054819382E+01 0.70926793967E+01 0.81616395368E+01
 0.77889267413E+01 0.87775995332E+01 0.97165935733E+01 0.10536522467E+02 0.11157708040E+02
 0.11576295028E+02 0.11861906143E+02 0.12100264152E+02 0.12329700158E+02 0.12508972578E+02
 0.12534339693E+02 0.12294654408E+02 0.11733562125E+02 0.10887499849E+02 0.98649698886E+01
 0.87572849310E+01 0.76472888416E+01 0.66076158756E+01 0.56911086938E+01 0.49273853581E+01
 0.43255102569E+01 0.38804848810E+01 0.35806629228E+01 0.34140878217E+01 0.33728016584E+01
 0.34548319059E+01 0.36640874610E+01 0.40086443683E+01 0.44974986965E+01 0.51353814573E+01
 0.59158933455E+01 0.68150782403E+01 0.64940097602E+01 0.73701294409E+01 0.82683859264E+01
 0.91374436371E+01 0.99339890740E+01 0.10616928676E+02 0.11165035175E+02 0.11598538977E+02
 0.11942880578E+02 0.12191498268E+02 0.12294663638E+02 0.12181430076E+02 0.11801260667E+02
 0.11161300062E+02 0.10321759075E+02 0.93488691245E+01 0.83164774562E+01 0.72971384102E+01
 0.63516491175E+01 0.55224722868E+01 0.48321872923E+01 0.42865806693E+01 0.38804848810E+01
 0.36040584092E+01 0.34478418168E+01 0.34058909840E+01 0.34770352019E+01 0.36646461629E+01
 0.39751976431E+01 0.44155283307E+01 0.49886022027E+01 0.56881777769E+01 0.54329550446E+01
 0.61442549714E+01 0.69234483534E+01 0.77327695676E+01 0.85321999037E+01 0.92876710719E+01
 0.99760239793E+01 0.10579469331E+02 0.11084976159E+02 0.11479603556E+02 0.11733565804E+02
 0.11801270403E+02 0.11642156946E+02 0.11246748670E+02 0.10635584645E+02 0.98512671283E+01
 0.89536178710E+01 0.80092478929E+01 0.70814009403E+01 0.62217943969E+01 0.54658668747E+01
 0.48321872923E+01 0.43255102569E+01 0.39418660429E+01 0.36738080929E+01 0.35144402485E+01
 0.34596801812E+01 0.35089649275E+01 0.36649263451E+01 0.39323329193E+01 0.43161096577E+01
 0.48181134879E+01 0.46318691288E+01 0.51618556137E+01 0.57809359302E+01 0.64673150427E+01
 0.71923385433E+01 0.79254659751E+01 0.86396236201E+01 0.93135253612E+01 0.99288563747E+01
 0.10463760717E+02 0.10887494105E+02 0.11161305213E+02 0.11246757594E+02 0.11117622856E+02
 0.10769281876E+02 0.10221668798E+02 0.95157510394E+01 0.87060462781E+01 0.78518043040E+01
 0.70086250017E+01 0.62217943969E+01 0.55224722868E+01 0.49273853581E+01 0.44416696032E+01
 0.40634404460E+01 0.37882351042E+01 0.36120062312E+01 0.35324692439E+01 0.35494350861E+01
 0.36647241484E+01 0.38816526601E+01 0.42036654508E+01 0.40833253912E+01 0.44379812311E+01
 0.48863363591E+01 0.54190831246E+01 0.60202346338E+01 0.66688860751E+01 0.73425965541E+01
 0.80202298650E+01 0.86820133352E+01 0.93062763025E+01 0.98649681647E+01 0.10321755514E+02
 0.10635587365E+02 0.10769286413E+02 0.10699392209E+02 0.10422801846E+02 0.99579978094E+01
 0.93415470688E+01 0.86218544151E+01 0.78518043040E+01 0.70814009403E+01 0.63516491175E+01
 0.56911086938E+01 0.51159166530E+01 0.46326886625E+01 0.42425710108E+01 0.39446562416E+01
 0.37379172583E+01 0.36219075849E+01 0.35969382930E+01 0.36641802464E+01 0.38256045290E+01
 0.37666361420E+01 0.39601652240E+01 0.42446041833E+01 0.46176472268E+01 0.50728298899E+01
 0.55992815536E+01 0.61829274711E+01 0.68082335747E+01 0.74589351135E+01 0.81165851573E+01
 0.87572921220E+01 0.93488672477E+01 0.98512623093E+01 0.10221667746E+02 0.10422802449E+02
 0.10431001036E+02 0.10241158150E+02 0.98676024347E+01 0.93415470688E+01 0.87060462781E+01
 0.80092478929E+01 0.72971384102E+01 0.66076158756E+01 0.59675798625E+01 0.53934944795E+01
 0.48943408851E+01 0.44750628775E+01 0.41389442104E+01 0.38884670065E+01 0.37252722050E+01
 0.36501762637E+01 0.36636862423E+01 0.36634261548E+01 0.37073948872E+01 0.38393858905E+01
 0.40592871326E+01 0.43656314836E+01 0.47545859236E+01 0.52197696653E+01 0.57528726968E+01
 0.63441175040E+01 0.69813346321E+01 0.76472922940E+01 0.83164802013E+01 0.89536181137E+01
 0.95157489031E+01 0.99579943780E+01 0.10241155410E+02 0.10338666865E+02 0.10241158150E+02
 0.99579978094E+01 0.95157510394E+01 0.89536178710E+01 0.83164774562E+01 0.76472888416E+01
 0.69813328177E+01 0.63441157741E+01 0.57528658904E+01 0.52197563650E+01 0.47545704766E+01
 0.43656146645E+01 0.40592619943E+01 0.38393513010E+01 0.37073673648E+01 0.37666317787E+01
 0.36637096884E+01 0.36502276174E+01 0.37253262030E+01 0.38885018423E+01 0.41389601195E+01
 0.44750725022E+01 0.48943510254E+01 0.53935014035E+01 0.59675787805E+01 0.66076102692E+01
 0.72971371113E+01 0.80092534203E+01 0.87060511424E+01 0.93415447357E+01 0.98675965248E+01
 0.10241155410E+02 0.10431001036E+02 0.10422801846E+02 0.10221668798E+02 0.98512671283E+01
 0.93488691245E+01 0.87572849310E+01 0.81165767261E+01 0.74589363798E+01 0.68082374998E+01
 0.61829164545E+01 0.55992562862E+01 0.50728116398E+01 0.46176464836E+01 0.42446061687E+01
 0.39601569776E+01 0.40833454497E+01 0.38256323687E+01 0.36642224761E+01 0.35969890068E+01
 0.36219547716E+01 0.37379516188E+01 0.39446738048E+01 0.42425750274E+01 0.46326879506E+01
 0.51159163806E+01 0.56911062940E+01 0.63516436303E+01 0.70813986654E+01 0.78518084981E+01
 0.86218581823E+01 0.93415447357E+01 0.99579943780E+01 0.10422802449E+02 0.10699392209E+02
 0.10769281876E+02 0.10635584645E+02 0.10321759075E+02 0.98649698886E+01 0.93062697384E+01
 0.86820072792E+01 0.80202326987E+01 0.73425978178E+01 0.66688716427E+01 0.60202124820E+01
 0.54190750529E+01 0.48863485167E+01 0.44380010113E+01 0.46319096849E+01 0.42037121743E+01
 0.38816940813E+01 0.36647594126E+01 0.35494710791E+01 0.35325070778E+01 0.36120325563E+01
 0.37882373033E+01 0.40634278948E+01 0.44416639879E+01 0.49273904381E+01 0.55224722641E+01
 0.62217837438E+01 0.70086177992E+01 0.78518084981E+01 0.87060511424E+01 0.95157489031E+01
 0.10221667746E+02 0.10769286413E+02 0.11117622856E+02 0.11246748670E+02 0.11161300062E+02
 0.10887499849E+02 0.10463764067E+02 0.99288468466E+01 0.93135154403E+01 0.86396278954E+01
 0.79254749801E+01 0.71923331150E+01 0.64672974622E+01 0.57809288887E+01 0.51618747825E+01
 0.54329797328E+01 0.48181561042E+01 0.43161579336E+01 0.39323729856E+01 0.36649511810E+01
 0.35089795734E+01 0.34596908077E+01 0.35144421197E+01 0.36737962639E+01 0.39418511126E+01
 0.43255063315E+01 0.48321898366E+01 0.54658617414E+01 0.62217837438E+01 0.70813986654E+01
 0.80092534203E+01 0.89536181137E+01 0.98512623093E+01 0.10635587365E+02 0.11246757594E+02
 0.11642156946E+02 0.11801260667E+02 0.11733562125E+02 0.11479608951E+02 0.11084975115E+02
 0.10579457651E+02 0.99760190707E+01 0.92876825648E+01 0.85322123080E+01 0.77327666335E+01
 0.69234377023E+01 0.61442569875E+01 0.64940123704E+01 0.56881897995E+01 0.49886344629E+01
 0.44155723688E+01 0.39752255907E+01 0.36646423987E+01 0.34770161550E+01 0.34058788412E+01
 0.34478333179E+01 0.36040393628E+01 0.38804612999E+01 0.42865703911E+01 0.48321898366E+01
 0.55224722641E+01 0.63516436303E+01 0.72971371113E+01 0.83164802013E+01 0.93488672477E+01
 0.10321755514E+02 0.11161305213E+02 0.11801270403E+02 0.12181430076E+02 0.12294654408E+02
 0.12191494501E+02 0.11942885789E+02 0.11598541231E+02 0.11165029429E+02 0.10616924908E+02
 0.99339953326E+01 0.91374556390E+01 0.82683956612E+01 0.73701338364E+01 0.77889342764E+01
 0.68150783304E+01 0.59158977191E+01 0.51353991555E+01 0.44975182853E+01 0.40086423095E+01
 0.36640590337E+01 0.34547979047E+01 0.33727773202E+01 0.34140646547E+01 0.35806329136E+01
 0.38804612999E+01 0.43255063315E+01 0.49273904381E+01 0.56911062940E+01 0.66076102692E+01
 0.76472922940E+01 0.87572921220E+01 0.98649681647E+01 0.10887494105E+02 0.11733565804E+02
 0.12294663638E+02 0.12534339693E+02 0.12508964580E+02 0.12329699423E+02 0.12100273451E+02
 0.11861911843E+02 0.11576290260E+02 0.11157702755E+02 0.10536527994E+02 0.97166090543E+01
 0.87776153083E+01 0.92399336994E+01 0.81616553155E+01 0.70926820550E+01 0.61054717315E+01
 0.52518272642E+01 0.45585471419E+01 0.40313936565E+01 0.36634449182E+01 0.34433955957E+01
 0.33616288134E+01 0.34140646547E+01 0.36040393628E+01 0.39418511126E+01 0.44416639879E+01
 0.51159163806E+01 0.59675787805E+01 0.69813346321E+01 0.81165851573E+01 0.93062763025E+01
 0.10463760717E+02 0.11479603556E+02 0.12191498268E+02 0.12508972578E+02 0.12472262683E+02
 0.12229580752E+02 0.11965179072E+02 0.11808496213E+02 0.11769465963E+02 0.11736374540E+02
 0.11539788786E+02 0.11048379427E+02 0.10244857440E+02 0.10694514458E+02 0.96362866268E+01
 0.84716617081E+01 0.73138659508E+01 0.62478951090E+01 0.53324622533E+01 0.45960840005E+01
 0.40429025544E+01 0.36632193785E+01 0.34433955957E+01 0.33727773202E+01 0.34478333179E+01
 0.36737962639E+01 0.40634278948E+01 0.46326879506E+01 0.53935014035E+01 0.63441175040E+01
 0.74589351135E+01 0.86820133352E+01 0.99288563747E+01 0.11084976159E+02 0.11942880578E+02
 0.12329700158E+02 0.12229587075E+02 0.11796310872E+02 0.11293507090E+02 0.10980849941E+02
 0.10994179113E+02 0.11279719125E+02 0.11620134637E+02 0.11741194487E+02 0.11443684656E+02
 0.11719639816E+02 0.11048424048E+02 0.99501713188E+01 0.87045638235E+01 0.74677142749E+01
 0.63361754736E+01 0.53737158660E+01 0.46087844950E+01 0.40429025544E+01 0.36634449182E+01
 0.34547979047E+01 0.34058788412E+01 0.35144421197E+01 0.37882373033E+01 0.42425750274E+01
 0.48943510254E+01 0.57528726968E+01 0.68082335747E+01 0.80202298650E+01 0.93135253612E+01
 0.10579469331E+02 0.11598538977E+02 0.12100264152E+02 0.11965179427E+02 0.11293514750E+02
 0.10385607943E+02 0.96341176756E+01 0.93625562218E+01 0.96807287784E+01 0.10431636954E+02
 0.11261581181E+02 0.11778656043E+02 0.11701368731E+02 0.11892124365E+02 0.11300037262E+02
 0.10167458227E+02 0.88490455613E+01 0.75466556370E+01 0.63661289130E+01 0.53737158660E+01
 0.45960840005E+01 0.40313936565E+01 0.36640590337E+01 0.34770161550E+01 0.34596908077E+01
 0.36120325563E+01 0.39446738048E+01 0.44750725022E+01 0.52197696653E+01 0.61829274711E+01
 0.73425965541E+01 0.86396236201E+01 0.99760239793E+01 0.11165035175E+02 0.11861906143E+02
 0.11808487360E+02 0.10980852066E+02 0.96341256496E+01 0.82387445367E+01 0.73144566726E+01
 0.72202042284E+01 0.79963319879E+01 0.93426858819E+01 0.10747520094E+02 0.10199007496E+02
 0.11576017813E+02 0.11986029917E+02 0.11449348839E+02 0.10278459628E+02 0.88980789354E+01
 0.75466556370E+01 0.63361754736E+01 0.53324622533E+01 0.45585471419E+01 0.40086423095E+01
 0.36646423987E+01 0.35089795734E+01 0.35325070778E+01 0.37379516188E+01 0.41389601195E+01
 0.47545859236E+01 0.55992815536E+01 0.66688860751E+01 0.79254659751E+01 0.92876710719E+01
 0.10616928676E+02 0.11576295028E+02 0.11769456387E+02 0.10994167582E+02 0.93625580576E+01
 0.73144638648E+01 0.54973735902E+01 0.45364615139E+01 0.47824919538E+01 0.61586878418E+01
 0.81895896491E+01 0.71731698320E+01 0.97433292465E+01 0.11468536132E+02 0.12025735744E+02
 0.11498793048E+02 0.10278459628E+02 0.88490455613E+01 0.74677142749E+01 0.62478951090E+01
 0.52518272642E+01 0.44975182853E+01 0.39752255907E+01 0.36649511810E+01 0.35494710791E+01
 0.36219547716E+01 0.38885018423E+01 0.43656314836E+01 0.50728298899E+01 0.60202346338E+01
 0.71923385433E+01 0.85321999037E+01 0.99339890740E+01 0.11157708040E+02 0.11736370812E+02
 0.11279701934E+02 0.96807185176E+01 0.72202080453E+01 0.45364652584E+01 0.24398020559E+01
 0.16195634020E+01 0.23647608575E+01 0.44381431148E+01 0.31053845625E+01 0.64771232138E+01
 0.94859268954E+01 0.11426971715E+02 0.12025735744E+02 0.11449348839E+02 0.10167458227E+02
 0.87045638235E+01 0.73138659508E+01 0.61054717315E+01 0.51353991555E+01 0.44155723688E+01
 0.39323729856E+01 0.36647594126E+01 0.35969890068E+01 0.37253262030E+01 0.40592871326E+01
 0.46176472268E+01 0.54190831246E+01 0.64673150427E+01 0.77327695676E+01 0.91374436371E+01
 0.10536522467E+02 0.11539789702E+02 0.11620125427E+02 0.10431622303E+02 0.79963284228E+01
 0.47824940200E+01 0.16195588461E+01 -.55668948646E+00 -.10499083701E+01 0.31284457789E+00
 -.10625682862E+01 0.23785275601E+01 0.62298793049E+01 0.94859268954E+01 0.11468536132E+02
 0.11986029917E+02 0.11300037262E+02 0.99501713188E+01 0.84716617081E+01 0.70926820550E+01
 0.59158977191E+01 0.49886344629E+01 0.43161579336E+01 0.38816940813E+01 0.36642224761E+01
 0.36502276174E+01 0.38393858905E+01 0.42446041833E+01 0.48863363591E+01 0.57809359302E+01
 0.69234483534E+01 0.82683859264E+01 0.97165935733E+01 0.11048379989E+02 0.11741198265E+02
 0.11261571119E+02 0.93426761784E+01 0.61586912099E+01 0.23647595707E+01 -.10499224344E+01
 -.30813201181E+01 -.30897640426E+01 -.41942307123E+01 -.15464864119E+01 0.23785275601E+01
 0.64771232138E+01 0.97433292465E+01 0.11576017813E+02 0.11892124365E+02 0.11048424048E+02
 0.96362866268E+01 0.81616553155E+01 0.68150783304E+01 0.56881897995E+01 0.48181561042E+01
 0.42037121743E+01 0.38256323687E+01 0.36637096884E+01 0.37073948872E+01 0.39601652240E+01
 0.44379812311E+01 0.51618556137E+01 0.61442549714E+01 0.73701294409E+01 0.87775995332E+01
 0.10244851435E+02 0.11443693443E+02 0.11778655408E+02 0.10747507082E+02 0.81895910057E+01
 0.44381582347E+01 0.31284002729E+00 -.30897875120E+01 -.47664351959E+01 -.41941244415E+01
 -.33527806105E+01 -.60548305289E+00 0.32235804234E+01 0.70683746273E+01 0.10001921194E+02
 0.11510299353E+02 0.11578506226E+02 0.10597679533E+02 0.91558909085E+01 0.76997623430E+01
 0.63904752846E+01 0.53100948653E+01 0.44876663381E+01 0.39165542202E+01 0.35752222088E+01
 0.34435379722E+01 0.35123144600E+01 0.37867743489E+01 0.42845408361E+01 0.50277626349E+01
 0.60285249388E+01 0.72687284385E+01 0.86808959083E+01 0.10134509752E+02 0.11271847771E+02
 0.11504007000E+02 0.10370877298E+02 0.77733648680E+01 0.41019314362E+01 0.19902427724E+00
 -.28719539345E+01 -.33528066168E+01 -.41942241407E+01 -.28720117292E+01 0.19904808203E+00
 0.41019594609E+01 0.77733364804E+01 0.10370841039E+02 0.11504034381E+02 0.11271912800E+02
 0.10134524800E+02 0.86808462059E+01 0.72686944276E+01 0.60285577557E+01 0.50278075631E+01
 0.42845278997E+01 0.37867304484E+01 0.35123166388E+01 0.34435839638E+01 0.35752318196E+01
 0.39165029119E+01 0.44876310502E+01 0.53101318119E+01 0.63905285543E+01 0.76997552537E+01
 0.91558489546E+01 0.10597680026E+02 0.11578541084E+02 0.11510286467E+02 0.10001850660E+02
 0.70683427671E+01 0.32236421079E+01 -.60541150566E+00 -.50428164359E+00 -.27625093935E+01
 -.30896851513E+01 -.13963712778E+01 0.17772092084E+01 0.54823081894E+01 0.87238268104E+01
 0.10792352411E+02 0.11441468298E+02 0.10878076356E+02 0.96064757724E+01 0.81688828512E+01
 0.68180306899E+01 0.56610420525E+01 0.47493565358E+01 0.40905941574E+01 0.36684857061E+01
 0.34614099909E+01 0.34548985923E+01 0.36478237978E+01 0.40529769810E+01 0.46921500453E+01
 0.55850993292E+01 0.67321339609E+01 0.80936748775E+01 0.95755990388E+01 0.10982331024E+02
 0.11814880812E+02 0.11520418232E+02 0.97921092052E+01 0.67516972891E+01 0.30017013512E+01
 0.34802460423E+01 0.49004014706E+00 -.11910517834E+01 -.10499498556E+01 0.84581178513E+00
 0.38783016634E+01 0.71314734927E+01 0.97355063735E+01 0.11146677803E+02 0.11266636622E+02
 0.10391029448E+02 0.90362694999E+01 0.76385188601E+01 0.63648846852E+01 0.53020594655E+01
 0.44852401435E+01 0.39127546693E+01 0.35656832347E+01 0.34240754834E+01 0.34770624438E+01
 0.37273801244E+01 0.41907271808E+01 0.48896129037E+01 0.58410620416E+01 0.70386457835E+01
 0.84333327485E+01 0.99222513726E+01 0.11280804647E+02 0.11998861356E+02 0.11581327242E+02
 0.98099596467E+01 0.68938388667E+01 0.74786171246E+01 0.45846776127E+01 0.22230602576E+01
 0.11227235353E+01 0.16195651698E+01 0.35193441697E+01 0.61824198058E+01 0.87845595834E+01
 0.10622210490E+02 0.11330199060E+02 0.10945363894E+02 0.98230670511E+01 0.84471170976E+01
 0.71087179187E+01 0.59260134392E+01 0.49644726414E+01 0.42443311993E+01 0.37567286993E+01
 0.34816298523E+01 0.34014128192E+01 0.35089553048E+01 0.38106293637E+01 0.43242498025E+01
 0.50717964443E+01 0.60665841401E+01 0.72956844994E+01 0.87026408405E+01 0.10179455688E+02
 0.11487644973E+02 0.12140229265E+02 0.11712737473E+02 0.10069572048E+02 0.10527383706E+02
 0.84060735859E+01 0.61368046202E+01 0.44296275391E+01 0.38384134318E+01 0.45364241523E+01
 0.62467548162E+01 0.83635602529E+01 0.10199091562E+02 0.11235637055E+02 0.11279571321E+02
 0.10476861502E+02 0.92080411675E+01 0.78593662471E+01 0.65984840914E+01 0.55167441199E+01
 0.46594907460E+01 0.40343048274E+01 0.36272565751E+01 0.34185956866E+01 0.33937504986E+01
 0.35493318688E+01 0.38945560285E+01 0.44481520557E+01 0.52305584654E+01 0.62509979018E+01
 0.74906772880E+01 0.88879053932E+01 0.10333586331E+02 0.11596045236E+02 0.12235533800E+02
 0.11901862108E+02 0.12105170873E+02 0.11091416136E+02 0.95140716501E+01 0.78912862719E+01
 0.67855104569E+01 0.65790071302E+01 0.73143841054E+01 0.86808355738E+01 0.10151703683E+02
 0.11200621676E+02 0.11494037616E+02 0.10986369148E+02 0.98976638953E+01 0.85880126412E+01
 0.72945089162E+01 0.61261571716E+01 0.51510189808E+01 0.43967087235E+01 0.38611425741E+01
 0.35277281408E+01 0.33782565375E+01 0.34013722931E+01 0.35968731403E+01 0.39759473647E+01
 0.45572582684E+01 0.53587954818E+01 0.63853513881E+01 0.76133010025E+01 0.89785473608E+01
 0.10375258256E+02 0.11597505756E+02 0.12267431624E+02 0.12208744797E+02 0.12259428647E+02
 0.11642101223E+02 0.10611441453E+02 0.95834371011E+01 0.89696526568E+01 0.90021950243E+01
 0.96340813974E+01 0.10565220249E+02 0.11377826615E+02 0.11710999944E+02 0.11395122918E+02
 0.10497696376E+02 0.92742196269E+01 0.79910336448E+01 0.67746921281E+01 0.57087735411E+01
 0.48405059625E+01 0.41835324435E+01 0.37294352395E+01 0.34608586008E+01 0.33617882843E+01
 0.34240375797E+01 0.36500343540E+01 0.40519075949E+01 0.46470848871E+01 0.54504079585E+01
 0.64625440749E+01 0.76565943295E+01 0.89687773148E+01 0.10299953042E+02 0.11482542728E+02
 0.11244691172E+02 0.12030993815E+02 0.12297034738E+02 0.12057964716E+02 0.11516971721E+02
 0.10980867278E+02 0.10723171705E+02 0.10858847257E+02 0.11293430134E+02 0.11771155935E+02
 0.11994284724E+02 0.11753092248E+02 0.11009229424E+02 0.99034597321E+01 0.86683036492E+01
 0.74440532057E+01 0.63206216675E+01 0.53606205065E+01 0.45944152015E+01 0.40256900419E+01
 0.36425249935E+01 0.34283084014E+01 0.33697054985E+01 0.34613333281E+01 0.37072735290E+01
 0.41195171947E+01 0.47135297109E+01 0.55007962788E+01 0.64783543797E+01 0.76176036720E+01
 0.88577453450E+01 0.10109077230E+02 0.98106786307E+01 0.10884609566E+02 0.11713510788E+02
 0.12163540707E+02 0.12243108229E+02 0.12095529054E+02 0.11924659550E+02 0.11890454800E+02
 0.12027642408E+02 0.12229564931E+02 0.12303571145E+02 0.12066676058E+02 0.11433525069E+02
 0.10458177236E+02 0.93067755510E+01 0.81152471386E+01 0.69724049959E+01 0.59499289073E+01
 0.50929775275E+01 0.44194606990E+01 0.39269491144E+01 0.36024527924E+01 0.34310769978E+01
 0.34020876364E+01 0.35122655632E+01 0.37665284907E+01 0.41759519674E+01 0.47534699176E+01
 0.55071738639E+01 0.64313667850E+01 0.74975995621E+01 0.86502498252E+01 0.83560547920E+01
 0.94178145521E+01 0.10414387628E+02 0.11253141191E+02 0.11832992798E+02 0.12147625084E+02
 0.12282009035E+02 0.12353001355E+02 0.12436200328E+02 0.12519628646E+02 0.12508940542E+02
 0.12279326570E+02 0.11745007973E+02 0.10911243124E+02 0.98811257565E+01 0.87653592960E+01
 0.76460256992E+01 0.65975988786E+01 0.56761034785E+01 0.49135780592E+01 0.43199026901E+01
 0.38896622722E+01 0.36103447919E+01 0.34692436265E+01 0.34580808416E+01 0.35752099548E+01
 0.38255523935E+01 0.42185973082E+01 0.47645980585E+01 0.54687369476E+01 0.63236289615E+01
 0.73024054014E+01 0.70415373115E+01 0.79892827664E+01 0.89484042428E+01 0.98597244515E+01
 0.10669470567E+02 0.11316317308E+02 0.11778108776E+02 0.12090033652E+02 0.12302550442E+02
 0.12435313963E+02 0.12455793115E+02 0.12294672900E+02 0.11888126108E+02 0.11222833174E+02
 0.10356016041E+02 0.93635338444E+01 0.83162384816E+01 0.72862065856E+01 0.63355268910E+01
 0.55081457552E+01 0.48272487502E+01 0.42981925368E+01 0.39147932978E+01 0.36661316136E+01
 0.35419695187E+01 0.35361308323E+01 0.36478968070E+01 0.38816761380E+01 0.42451743116E+01
 0.47460723719E+01 0.53871365302E+01 0.61602983064E+01 0.59495020277E+01 0.67280243066E+01
 0.75675000131E+01 0.84236526404E+01 0.92497396282E+01 0.10005659804E+02 0.10662190333E+02
 0.11195104349E+02 0.11602481914E+02 0.11889543129E+02 0.12043491681E+02 0.12028000635E+02
 0.11801269952E+02 0.11346328699E+02 0.10688184059E+02 0.98698525967E+01 0.89483393337E+01
 0.79887864782E+01 0.70542135820E+01 0.61965985460E+01 0.54513436923E+01 0.48363225062E+01
 0.43550486797E+01 0.40021210525E+01 0.37688249091E+01 0.36474342176E+01 0.36336692623E+01
 0.37274498554E+01 0.39323790834E+01 0.42542471551E+01 0.46984500132E+01 0.52661274660E+01
 0.51118300446E+01 0.57017440146E+01 0.63769041493E+01 0.71102237157E+01 0.78672594667E+01
 0.86119813569E+01 0.93130920055E+01 0.99475131278E+01 0.10498599155E+02 0.10949353023E+02
 0.11278261219E+02 0.11456817599E+02 0.11453249074E+02 0.11246770223E+02 0.10835553309E+02
 0.10239701501E+02 0.94992745775E+01 0.86677408296E+01 0.78035317219E+01 0.69615688789E+01
 0.61863275224E+01 0.55078127084E+01 0.49412169650E+01 0.44898977327E+01 0.41501876318E+01
 0.39161237544E+01 0.37827230652E+01 0.37475086959E+01 0.38107977345E+01 0.39753097121E+01
 0.42451684613E+01 0.46239796455E+01 0.45264178956E+01 0.49317268329E+01 0.54288195016E+01
 0.60045561744E+01 0.66382240986E+01 0.73040020529E+01 0.79751528450E+01 0.86277702692E+01
 0.92417433573E+01 0.97980394752E+01 0.10274001498E+02 0.10640411095E+02 0.10863613507E+02
 0.10912832386E+02 0.10769293134E+02 0.10432768031E+02 0.99231202966E+01 0.92772141698E+01
 0.85429743368E+01 0.77722355764E+01 0.70135727358E+01 0.63063410030E+01 0.56772825885E+01
 0.51405105016E+01 0.47004295069E+01 0.43560006479E+01 0.41045349283E+01 0.39439803020E+01
 0.38737392589E+01 0.38946578413E+01 0.40087358184E+01 0.42186089486E+01 0.41759643960E+01
 0.44104835870E+01 0.47344532084E+01 0.51433792460E+01 0.56274550834E+01 0.61717463093E+01
 0.67580977444E+01 0.73677009309E+01 0.79826451272E+01 0.85851115316E+01 0.91542988607E+01
 0.96631221808E+01 0.10077719506E+02 0.10361546546E+02 0.10482937394E+02 0.10422805726E+02
 0.10179396019E+02 0.97690026770E+01 0.92233181622E+01 0.85845092546E+01 0.78989143293E+01
 0.72103797910E+01 0.65547046713E+01 0.59566937170E+01 0.54304786051E+01 0.49824126948E+01
 0.46148317727E+01 0.43289612033E+01 0.41261869854E+01 0.40080715447E+01 0.39760649014E+01
 0.40315398276E+01 0.40430166059E+01 0.41195505758E+01 0.42817780626E+01 0.45288663553E+01
 0.48575444125E+01 0.52611320191E+01 0.57298097954E+01 0.62519618158E+01 0.68154086085E+01
 0.74071628593E+01 0.80112142559E+01 0.86053416043E+01 0.91591390198E+01 0.96353402707E+01
 0.99948889591E+01 0.10204087533E+02 0.10241167302E+02 0.10100325175E+02 0.97926889976E+01
 0.93445152504E+01 0.87930103957E+01 0.81802956263E+01 0.75467094761E+01 0.69253636680E+01
 0.63397021768E+01 0.58044796259E+01 0.53288761695E+01 0.49196417461E+01 0.45827585719E+01
 0.43234982587E+01 0.41457944592E+01 0.40519448844E+01 0.41195186976E+01 0.40430494285E+01
 0.40519891921E+01 0.41457844796E+01 0.43234571870E+01 0.45827573473E+01 0.49196852968E+01
 0.53289032595E+01 0.58044659109E+01 0.63396900040E+01 0.69253812433E+01 0.75467270805E+01
 0.81802849161E+01 0.87929930122E+01 0.93445212081E+01 0.97927060727E+01 0.10100323085E+02
 0.10241147043E+02 0.10204075827E+02 0.99948965428E+01 0.96353507551E+01 0.91591365798E+01
 0.86053329081E+01 0.80112165863E+01 0.74071753254E+01 0.68154072708E+01 0.62519344130E+01
 0.57297837774E+01 0.52611404256E+01 0.48575677864E+01 0.45288506199E+01 0.42817207405E+01
 0.44105063116E+01 0.41759420086E+01 0.40314890401E+01 0.39760336289E+01 0.40080759256E+01
 0.41262024819E+01 0.43289627936E+01 0.46148234660E+01 0.49824154098E+01 0.54304969591E+01
 0.59567063861E+01 0.65546956306E+01 0.72103666195E+01 0.78989232580E+01 0.85845300854E+01
 0.92233170021E+01 0.97689785100E+01 0.10179383536E+02 0.10422814157E+02 0.10482933624E+02
 0.10361518004E+02 0.10077704397E+02 0.96631454851E+01 0.91543247380E+01 0.85851018689E+01
 0.79826246179E+01 0.73677116528E+01 0.67581209069E+01 0.61717303104E+01 0.56274046869E+01