    2    2   15    1
  0.2001288E+02  0.3839590E-09  0.3839590E-09  0.3839590E-09  0.5000000E-15
  1.000000000000000E-004
  CAR 
 unknown system                          
      8     20      8
 
  0.0000000E+00  0.0000000E+00  0.0000000E+00  0.2915452E-02
    1       -6.201121   1.000000
    2        5.664952   0.983546
    3        5.664952   0.983546
    4        5.665266   0.983455
    5        8.233151   0.000000
    6        8.233151   0.000000
    7        8.233379   0.000000
    8        8.742171   0.000000
 
  0.1428571E+00 -0.2862800E-17 -0.1748977E-16  0.2332362E-01
    1       -5.939442   1.000000
    2        3.723983   1.000000
    3        5.308645   0.999998
    4        5.308897   0.999998
    5        8.041899   0.000000
    6        8.752393   0.000000
    7        8.752692   0.000000
    8       10.492880   0.000000
 
  0.2857143E+00 -0.2269120E-16  0.9741634E-17  0.2332362E-01
    1       -5.186121   1.000000
    2        1.127001   1.000000
    3        4.789789   1.000000
    4        4.790011   1.000000
    5        7.509811   0.000000
    6        9.233785   0.000000
    7        9.234221   0.000000
    8       12.969039   0.000000
 
  0.4285714E+00 -0.2759730E-17  0.1159403E-16  0.2332362E-01
    1       -4.167091   1.000000
    2       -0.876787   1.000000
    3        4.499796   1.000000
    4        4.500021   1.000000
    5        7.167917   0.000000
    6        9.118780   0.000000
    7        9.119181   0.000000
    8       13.426575   0.000000
 
  0.1428571E+00  0.1428571E+00  0.4108522E-18  0.1749271E-01
    1       -5.850853   1.000000
    2        3.997868   1.000000
    3        4.701805   1.000000
    4        4.701976   1.000000
    5        7.565024   0.000000
    6        9.635738   0.000000
    7        9.635939   0.000000
    8        9.941584   0.000000
 
  0.2857143E+00  0.1428571E+00 -0.8512426E-17  0.6997085E-01
    1       -5.253930   1.000000
    2        1.900488   1.000000
    3        4.113117   1.000000
    4        4.159214   1.000000
    5        7.763302   0.000000
    6        9.503016   0.000000
    7       10.323051   0.000000
    8       10.433265   0.000000
 
  0.4285714E+00  0.1428571E+00  0.6714690E-17  0.6997085E-01
    1       -4.263680   1.000000
    2       -0.254167   1.000000
    3        3.430156   1.000000
    4        3.966172   1.000000
    5        7.822885   0.000000
    6        9.473885   0.000000
    7       10.250245   0.000000
    8       11.494228   0.000000
 
 -0.4285714E+00  0.1428571E+00 -0.2538985E-16  0.6997085E-01
    1       -3.718395   1.000000
    2       -1.102503   1.000000
    3        3.018201   1.000000
    4        4.162384   1.000000
    5        7.901741   0.000000
    6        9.409180   0.000000
    7        9.866540   0.000000
    8       13.798503   0.000000
 
 -0.2857143E+00  0.1428571E+00 -0.5704498E-17  0.6997085E-01
    1       -4.625294   1.000000
    2        0.415403   1.000000
    3        3.029564   1.000000
    4        4.670025   1.000000
    5        8.285717   0.000000
    6        9.598618   0.000000
    7        9.624530   0.000000
    8       12.268219   0.000000
 
 -0.1428571E+00  0.1428571E+00 -0.5725601E-17  0.3498542E-01
    1       -5.510382   1.000000
    2        2.514994   1.000000
    3        3.720930   1.000000
    4        5.264706   1.000000
    5        8.663362   0.000000
    6        8.967335   0.000000
    7        9.233930   0.000000
    8       11.229235   0.000000
 
  0.2857143E+00  0.2857143E+00  0.8217044E-18  0.1749271E-01
    1       -4.816746   1.000000
    2        1.479612   1.000000
    3        3.539817   1.000000
    4        3.539966   1.000000
    5        6.637940   0.000001
    6        8.350977   0.000000
    7       12.052021   0.000000
    8       12.052278   0.000000
 
  0.4285714E+00  0.2857143E+00 -0.5710699E-17  0.6997085E-01
    1       -3.929487   1.000000
    2       -0.003500   1.000000
    3        2.578802   1.000000
    4        3.280017   1.000000
    5        6.929811   0.000000
    6        8.411335   0.000000
    7       12.242990   0.000000
    8       12.472608   0.000000
 
 -0.4285714E+00  0.2857143E+00  0.1028864E-16  0.6997085E-01
    1       -3.031710   1.000000
    2       -1.161079   1.000000
    3        1.642393   1.000000
    4        3.444237   1.000000
    5        7.171520   0.000000
    6       10.662460   0.000000
    7       11.955535   0.000000
    8       11.979180   0.000000
 
 -0.2857143E+00  0.2857143E+00 -0.7704199E-17  0.3498542E-01
    1       -3.669213   1.000000
    2       -0.423150   1.000000
    3        1.572562   1.000000
    4        3.989763   1.000000
    5        7.767482   0.000000
    6       11.121252   0.000000
    7       11.514685   0.000000
    8       12.168740   0.000000
 
  0.4285714E+00  0.4285714E+00  0.1232557E-17  0.1749271E-01
    1       -3.155809   1.000000
    2       -0.989663   1.000000
    3        2.911395   1.000000
    4        2.911531   1.000000
    5        6.305776   0.008240
    6        6.818469   0.000000
    7       14.702805   0.000000
    8       14.702987   0.000000
 
 -0.4285714E+00  0.4285714E+00 -0.5519460E-17  0.3498542E-01
    1       -2.224501   1.000000
    2       -1.935170   1.000000
    3        2.042698   1.000000
    4        2.970696   1.000000
    5        6.604315   0.000003
    6        7.844814   0.000000
    7       14.431719   0.000000
    8       14.791088   0.000000
 
  0.4285714E+00  0.2857143E+00  0.1428571E+00  0.6997085E-01
    1       -4.513948   1.000000
    2        0.758367   1.000000
    3        2.585229   1.000000
    4        3.886819   1.000000
    5        8.272917   0.000000
    6        9.519863   0.000000
    7        9.831480   0.000000
    8       11.810143   0.000000
 
 -0.4285714E+00  0.2857143E+00  0.1428571E+00  0.1399417E+00
    1       -3.492136   1.000000
    2       -0.749985   1.000000
    3        2.014515   1.000000
    4        3.359331   1.000000
    5        8.762499   0.000000
    6        9.168669   0.000000
    7       11.143798   0.000000
    8       12.281122   0.000000
 
 -0.4285714E+00  0.4285714E+00  0.1428571E+00  0.6997085E-01
    1       -2.957304   1.000000
    2       -1.077922   1.000000
    3        2.107979   1.000000
    4        2.513779   1.000000
    5        7.913641   0.000000
    6        8.285521   0.000000
    7       11.811572   0.000000
    8       14.269171   0.000000
 
 -0.2857143E+00  0.4285714E+00  0.1428571E+00  0.6997085E-01
    1       -2.531377   1.000000
    2       -1.468821   1.000000
    3        1.484857   1.000000
    4        2.604283   1.000000
    5        8.441868   0.000000
    6       10.565343   0.000000
    7       11.279876   0.000000
    8       11.451344   0.000000
