   2   2   0   0
  0.1529437E+02  0.3691622E-09  0.3691622E-09  0.3691622E-09  0.5000000E-15
  1.000000000000000E-004
  CAR 
 unknown system                          
     20.23415332     -5.16587013  301      8.51391222      1.00000000
     -5.166  0.0000E+00  0.0000E+00
     -5.081  0.0000E+00  0.0000E+00
     -4.997  0.0000E+00  0.0000E+00
     -4.912  0.0000E+00  0.0000E+00
     -4.827  0.0000E+00  0.0000E+00
     -4.743  0.0000E+00  0.0000E+00
     -4.658  0.0000E+00  0.0000E+00
     -4.573  0.0000E+00  0.0000E+00
     -4.489  0.0000E+00  0.0000E+00
     -4.404  0.0000E+00  0.0000E+00
     -4.319  0.1311E-15  0.1110E-16
     -4.235  0.1617E-13  0.1380E-14
     -4.150  0.1343E-11  0.1151E-12
     -4.065  0.7847E-10  0.6758E-11
     -3.981  0.3221E-08  0.2795E-09
     -3.896  0.9296E-07  0.8150E-08
     -3.811  0.1887E-05  0.1679E-06
     -3.727  0.2697E-04  0.2452E-05
     -3.642  0.2715E-03  0.2544E-04
     -3.557  0.1926E-02  0.1885E-03
     -3.473  0.9634E-02  0.1004E-02
     -3.388  0.3399E-01  0.3882E-02
     -3.303  0.8466E-01  0.1105E-01
     -3.219  0.1489E+00  0.2365E-01
     -3.134  0.1848E+00  0.3930E-01
     -3.049  0.1620E+00  0.5302E-01
     -2.965  0.1003E+00  0.6152E-01
     -2.880  0.4386E-01  0.6523E-01
     -2.795  0.1353E-01  0.6637E-01
     -2.711  0.2946E-02  0.6662E-01
     -2.626  0.4523E-03  0.6666E-01
     -2.541  0.4894E-04  0.6667E-01
     -2.457  0.3731E-05  0.6667E-01
     -2.372  0.2002E-06  0.6667E-01
     -2.287  0.7559E-08  0.6667E-01
     -2.203  0.2007E-09  0.6667E-01
     -2.118  0.3745E-11  0.6667E-01
     -2.033  0.4904E-13  0.6667E-01
     -1.949  0.4371E-15  0.6667E-01
     -1.864  0.0000E+00  0.6667E-01
     -1.779  0.0000E+00  0.6667E-01
     -1.695  0.0000E+00  0.6667E-01
     -1.610  0.0000E+00  0.6667E-01
     -1.525  0.0000E+00  0.6667E-01
     -1.441  0.0000E+00  0.6667E-01
     -1.356  0.0000E+00  0.6667E-01
     -1.271  0.0000E+00  0.6667E-01
     -1.187  0.0000E+00  0.6667E-01
     -1.102  0.0000E+00  0.6667E-01
     -1.017  0.0000E+00  0.6667E-01
     -0.933  0.0000E+00  0.6667E-01
     -0.848  0.0000E+00  0.6667E-01
     -0.763  0.0000E+00  0.6667E-01
     -0.679  0.0000E+00  0.6667E-01
     -0.594  0.0000E+00  0.6667E-01
     -0.509  0.0000E+00  0.6667E-01
     -0.425  0.0000E+00  0.6667E-01
     -0.340  0.2185E-16  0.6667E-01
     -0.255  0.3934E-14  0.6667E-01
     -0.171  0.3449E-12  0.6667E-01
     -0.086  0.2129E-10  0.6667E-01
     -0.001  0.9233E-09  0.6667E-01
      0.083  0.2815E-07  0.6667E-01
      0.168  0.6038E-06  0.6667E-01
      0.253  0.9114E-05  0.6667E-01
      0.337  0.9689E-04  0.6668E-01
      0.422  0.7259E-03  0.6674E-01
      0.507  0.3834E-02  0.6706E-01
      0.591  0.1429E-01  0.6827E-01
      0.676  0.3756E-01  0.7145E-01
      0.761  0.6973E-01  0.7736E-01
      0.845  0.9141E-01  0.8510E-01
      0.930  0.8462E-01  0.9226E-01
      1.015  0.5531E-01  0.9694E-01
      1.099  0.2553E-01  0.9910E-01
      1.184  0.8318E-02  0.9981E-01
      1.269  0.1917E-02  0.9997E-01
      1.353  0.3662E-03  0.1000E+00
      1.438  0.5440E-03  0.1000E+00
      1.523  0.3250E-02  0.1003E+00
      1.607  0.1462E-01  0.1016E+00
      1.692  0.4643E-01  0.1055E+00
      1.777  0.1041E+00  0.1143E+00
      1.861  0.1648E+00  0.1283E+00
      1.946  0.1843E+00  0.1439E+00
      2.031  0.1455E+00  0.1562E+00
      2.115  0.8109E-01  0.1630E+00
      2.200  0.3192E-01  0.1657E+00
      2.285  0.8865E-02  0.1665E+00
      2.369  0.1737E-02  0.1666E+00
      2.454  0.2400E-03  0.1667E+00
      2.539  0.2337E-04  0.1667E+00
      2.623  0.1646E-05  0.1667E+00
      2.708  0.1031E-05  0.1667E+00
      2.793  0.1482E-04  0.1667E+00
      2.877  0.1621E-03  0.1667E+00
      2.962  0.1250E-02  0.1668E+00
      3.047  0.6808E-02  0.1674E+00
      3.131  0.2624E-01  0.1696E+00
      3.216  0.7199E-01  0.1757E+00
      3.301  0.1428E+00  0.1878E+00
      3.385  0.2118E+00  0.2057E+00
      3.470  0.2513E+00  0.2270E+00
      3.555  0.2595E+00  0.2490E+00
      3.639  0.2410E+00  0.2694E+00
      3.724  0.1956E+00  0.2859E+00
      3.809  0.1476E+00  0.2984E+00
      3.893  0.1379E+00  0.3101E+00
      3.978  0.1682E+00  0.3243E+00
      4.063  0.1887E+00  0.3403E+00
      4.147  0.1591E+00  0.3538E+00
      4.232  0.9591E-01  0.3619E+00
      4.317  0.4092E-01  0.3654E+00
      4.401  0.1232E-01  0.3664E+00
      4.486  0.2619E-02  0.3666E+00
      4.571  0.3926E-03  0.3667E+00
      4.655  0.4147E-04  0.3667E+00
      4.740  0.3086E-05  0.3667E+00
      4.825  0.1617E-06  0.3667E+00
      4.909  0.7205E-08  0.3667E+00
      4.994  0.3739E-07  0.3667E+00
      5.079  0.7850E-06  0.3667E+00
      5.163  0.1171E-04  0.3667E+00
      5.248  0.1238E-03  0.3667E+00
      5.333  0.9316E-03  0.3668E+00
      5.417  0.5009E-02  0.3672E+00
      5.502  0.1934E-01  0.3688E+00
      5.587  0.5390E-01  0.3734E+00
      5.671  0.1091E+00  0.3826E+00
      5.756  0.1611E+00  0.3963E+00
      5.841  0.1741E+00  0.4110E+00
      5.925  0.1378E+00  0.4227E+00
      6.010  0.7969E-01  0.4294E+00
      6.095  0.3356E-01  0.4322E+00
      6.179  0.1023E-01  0.4331E+00
      6.264  0.2246E-02  0.4333E+00
      6.349  0.3532E-03  0.4333E+00
      6.433  0.3959E-04  0.4333E+00
      6.518  0.3235E-05  0.4333E+00
      6.603  0.1872E-05  0.4333E+00
      6.687  0.2455E-04  0.4333E+00
      6.772  0.2503E-03  0.4334E+00
      6.857  0.1800E-02  0.4335E+00
      6.941  0.9121E-02  0.4343E+00
      7.026  0.3261E-01  0.4370E+00
      7.111  0.8230E-01  0.4440E+00
      7.195  0.1466E+00  0.4564E+00
      7.280  0.1845E+00  0.4720E+00
      7.365  0.1639E+00  0.4859E+00
      7.449  0.1028E+00  0.4946E+00
      7.534  0.4555E-01  0.4985E+00
      7.619  0.1424E-01  0.4997E+00
      7.703  0.3141E-02  0.5000E+00
      7.788  0.4888E-03  0.5000E+00
      7.873  0.5576E-04  0.5000E+00
      7.957  0.3466E-04  0.5000E+00
      8.042  0.3021E-03  0.5000E+00
      8.127  0.2105E-02  0.5002E+00
      8.211  0.1034E-01  0.5011E+00
      8.296  0.3587E-01  0.5041E+00
      8.381  0.8780E-01  0.5116E+00
      8.465  0.1517E+00  0.5244E+00
      8.550  0.1851E+00  0.5401E+00
      8.635  0.1595E+00  0.5536E+00
      8.719  0.9707E-01  0.5618E+00
      8.804  0.4170E-01  0.5653E+00
      8.889  0.1265E-01  0.5664E+00
      8.973  0.2705E-02  0.5666E+00
      9.058  0.4081E-03  0.5667E+00
      9.143  0.4340E-04  0.5667E+00
      9.227  0.3251E-05  0.5667E+00
      9.312  0.1714E-06  0.5667E+00
      9.397  0.6359E-08  0.5667E+00
      9.481  0.1659E-09  0.5667E+00
      9.566  0.3041E-11  0.5667E+00
      9.651  0.3916E-13  0.5667E+00
      9.735  0.3497E-15  0.5667E+00
      9.820  0.0000E+00  0.5667E+00
      9.905  0.0000E+00  0.5667E+00
      9.989  0.0000E+00  0.5667E+00
     10.074  0.0000E+00  0.5667E+00
     10.159  0.0000E+00  0.5667E+00
     10.243  0.0000E+00  0.5667E+00
     10.328  0.0000E+00  0.5667E+00
     10.413  0.7431E-15  0.5667E+00
     10.497  0.7402E-13  0.5667E+00
     10.582  0.5174E-11  0.5667E+00
     10.667  0.2541E-09  0.5667E+00
     10.751  0.8774E-08  0.5667E+00
     10.836  0.2131E-06  0.5667E+00
     10.921  0.3640E-05  0.5667E+00
     11.005  0.4379E-04  0.5667E+00
     11.090  0.3712E-03  0.5667E+00
     11.175  0.2218E-02  0.5669E+00
     11.259  0.9346E-02  0.5677E+00
     11.344  0.2779E-01  0.5700E+00
     11.429  0.5833E-01  0.5750E+00
     11.513  0.8645E-01  0.5823E+00
     11.598  0.9048E-01  0.5900E+00
     11.683  0.6690E-01  0.5956E+00
     11.767  0.3523E-01  0.5986E+00
     11.852  0.1512E-01  0.5999E+00
     11.937  0.1430E-01  0.6011E+00
     12.021  0.3807E-01  0.6043E+00
     12.106  0.9046E-01  0.6120E+00
     12.191  0.1540E+00  0.6250E+00
     12.275  0.1853E+00  0.6407E+00
     12.360  0.1576E+00  0.6540E+00
     12.445  0.9597E-01  0.6622E+00
     12.529  0.4801E-01  0.6662E+00
     12.614  0.4151E-01  0.6697E+00
     12.699  0.7962E-01  0.6765E+00
     12.783  0.1433E+00  0.6886E+00
     12.868  0.1917E+00  0.7049E+00
     12.953  0.1986E+00  0.7217E+00
     13.037  0.1875E+00  0.7375E+00
     13.122  0.1928E+00  0.7539E+00
     13.207  0.1998E+00  0.7708E+00
     13.291  0.1702E+00  0.7852E+00
     13.376  0.1072E+00  0.7943E+00
     13.461  0.4825E-01  0.7984E+00
     13.545  0.1538E-01  0.7997E+00
     13.630  0.3460E-02  0.7999E+00
     13.715  0.5492E-03  0.8000E+00
     13.799  0.6144E-04  0.8000E+00
     13.884  0.4843E-05  0.8000E+00
     13.969  0.2687E-06  0.8000E+00
     14.053  0.1050E-07  0.8000E+00
     14.138  0.7182E-09  0.8000E+00
     14.223  0.1509E-07  0.8000E+00
     14.307  0.3721E-06  0.8000E+00
     14.392  0.6458E-05  0.8000E+00
     14.477  0.7893E-04  0.8000E+00
     14.561  0.6796E-03  0.8001E+00
     14.646  0.4125E-02  0.8004E+00
     14.731  0.1766E-01  0.8019E+00
     14.815  0.5333E-01  0.8064E+00
     14.900  0.1137E+00  0.8160E+00
     14.985  0.1711E+00  0.8305E+00
     15.069  0.1819E+00  0.8459E+00
     15.154  0.1366E+00  0.8575E+00
     15.239  0.7240E-01  0.8636E+00
     15.323  0.2710E-01  0.8659E+00
     15.408  0.7160E-02  0.8665E+00
     15.493  0.1390E-02  0.8667E+00
     15.577  0.6904E-03  0.8667E+00
     15.662  0.3298E-02  0.8670E+00
     15.747  0.1474E-01  0.8682E+00
     15.831  0.4673E-01  0.8722E+00
     15.916  0.1045E+00  0.8810E+00
     16.001  0.1651E+00  0.8950E+00
     16.085  0.1842E+00  0.9106E+00
     16.170  0.1451E+00  0.9229E+00
     16.255  0.8070E-01  0.9297E+00
     16.339  0.3169E-01  0.9324E+00
     16.424  0.8782E-02  0.9332E+00
     16.509  0.1717E-02  0.9333E+00
     16.593  0.2412E-03  0.9333E+00
     16.678  0.8057E-04  0.9333E+00
     16.763  0.5211E-03  0.9334E+00
     16.847  0.3305E-02  0.9337E+00
     16.932  0.1482E-01  0.9349E+00
     17.017  0.4691E-01  0.9389E+00
     17.101  0.1048E+00  0.9478E+00
     17.186  0.1653E+00  0.9618E+00
     17.271  0.1841E+00  0.9773E+00
     17.355  0.1448E+00  0.9896E+00
     17.440  0.8045E-01  0.9964E+00
     17.525  0.3155E-01  0.9991E+00
     17.609  0.8734E-02  0.9998E+00
     17.694  0.1753E-02  0.1000E+01
     17.779  0.6869E-03  0.1000E+01
     17.863  0.2969E-02  0.1000E+01
     17.948  0.1353E-01  0.1001E+01
     18.033  0.4386E-01  0.1005E+01
     18.117  0.1003E+00  0.1014E+01
     18.202  0.1620E+00  0.1027E+01
     18.287  0.1848E+00  0.1043E+01
     18.371  0.1489E+00  0.1056E+01
     18.456  0.8466E-01  0.1063E+01
     18.541  0.3399E-01  0.1066E+01
     18.625  0.9634E-02  0.1066E+01
     18.710  0.1926E-02  0.1067E+01
     18.795  0.2715E-03  0.1067E+01
     18.879  0.2697E-04  0.1067E+01
     18.964  0.1887E-05  0.1067E+01
     19.049  0.9296E-07  0.1067E+01
     19.133  0.3221E-08  0.1067E+01
     19.218  0.7847E-10  0.1067E+01
     19.303  0.1343E-11  0.1067E+01
     19.387  0.1609E-13  0.1067E+01
     19.472  0.1748E-15  0.1067E+01
     19.557  0.0000E+00  0.1067E+01
     19.641  0.0000E+00  0.1067E+01
     19.726  0.0000E+00  0.1067E+01
     19.811  0.0000E+00  0.1067E+01
     19.895  0.0000E+00  0.1067E+01
     19.980  0.0000E+00  0.1067E+01
     20.065  0.0000E+00  0.1067E+01
     20.149  0.0000E+00  0.1067E+01
     20.234  0.0000E+00  0.1067E+01
