    2    2   15    1
  0.2001288E+02  0.3839590E-09  0.3839590E-09  0.3839590E-09  0.5000000E-15
  1.000000000000000E-004
  CAR 
 unknown system                          
      8     60      8
 
  0.6250000E-01  0.6250000E-01  0.6250000E-01  0.3906250E-02
    1       -6.146289   1.000000
    2        5.113459   1.000000
    3        5.564979   0.998127
    4        5.564979   0.998127
    5        8.249854   0.000000
    6        8.334037   0.000000
    7        8.334037   0.000000
    8        9.177588   0.000000
 
  0.1875000E+00  0.6250000E-01  0.6250000E-01  0.1171875E-01
    1       -5.879746   1.000000
    2        3.606919   1.000000
    3        4.757657   1.000000
    4        5.445695   0.999909
    5        8.303105   0.000000
    6        8.578725   0.000000
    7        8.870387   0.000000
    8       10.656938   0.000000
 
  0.3125000E+00  0.6250000E-01  0.6250000E-01  0.1171875E-01
    1       -5.236360   1.000000
    2        1.385372   1.000000
    3        4.269576   1.000000
    4        4.982245   1.000000
    5        7.856321   0.000000
    6        9.078134   0.000000
    7        9.366738   0.000000
    8       12.216824   0.000000
 
  0.4375000E+00  0.6250000E-01  0.6250000E-01  0.1171875E-01
    1       -4.339106   1.000000
    2       -0.493521   1.000000
    3        4.050389   1.000000
    4        4.573781   1.000000
    5        7.543059   0.000000
    6        9.147204   0.000000
    7        9.165646   0.000000
    8       13.448029   0.000000
 
 -0.4375000E+00  0.6250000E-01  0.6250000E-01  0.1171875E-01
    1       -3.893357   1.000000
    2       -1.190268   1.000000
    3        4.099640   1.000000
    4        4.354819   1.000000
    5        7.462379   0.000000
    6        8.953397   0.000000
    7        9.229190   0.000000
    8       13.513083   0.000000
 
 -0.3125000E+00  0.6250000E-01  0.6250000E-01  0.1171875E-01
    1       -4.646407   1.000000
    2        0.062187   1.000000
    3        4.376758   1.000000
    4        4.386517   1.000000
    5        7.628721   0.000000
    6        8.959361   0.000000
    7        9.480635   0.000000
    8       12.602658   0.000000
 
 -0.1875000E+00  0.6250000E-01  0.6250000E-01  0.1171875E-01
    1       -5.488674   1.000000
    2        2.112420   1.000000
    3        4.655058   1.000000
    4        4.852558   1.000000
    5        7.984018   0.000000
    6        8.811754   0.000000
    7        9.535346   0.000000
    8       11.406659   0.000000
 
 -0.6250000E-01  0.6250000E-01  0.6250000E-01  0.1171875E-01
    1       -6.012323   1.000000
    2        4.360150   1.000000
    3        5.137656   1.000000
    4        5.296723   0.999999
    5        8.048603   0.000000
    6        8.617371   0.000000
    7        8.914662   0.000000
    8        9.919833   0.000000
 
  0.1875000E+00  0.1875000E+00  0.6250000E-01  0.1171875E-01
    1       -5.745627   1.000000
    2        3.465141   1.000000
    3        4.580037   1.000000
    4        4.663746   1.000000
    5        7.629900   0.000000
    6        9.377961   0.000000
    7        9.774775   0.000000
    8       10.290082   0.000000
 
  0.3125000E+00  0.1875000E+00  0.6250000E-01  0.2343750E-01
    1       -5.224066   1.000000
    2        1.964231   1.000000
    3        3.609727   1.000000
    4        4.404207   1.000000
    5        7.801166   0.000000
    6        9.485902   0.000000
    7       10.132215   0.000000
    8       10.581071   0.000000
 
  0.4375000E+00  0.1875000E+00  0.6250000E-01  0.2343750E-01
    1       -4.383622   1.000000
    2        0.113887   1.000000
    3        3.115397   1.000000
    4        3.992368   1.000000
    5        7.997941   0.000000
    6        9.423670   0.000000
    7       10.603713   0.000000
    8       10.889290   0.000000
 
 -0.4375000E+00  0.1875000E+00  0.6250000E-01  0.2343750E-01
    1       -3.626340   1.000000
    2       -1.089655   1.000000
    3        2.827641   1.000000
    4        3.899266   1.000000
    5        8.067496   0.000000
    6        9.124567   0.000000
    7       10.459148   0.000000
    8       12.905503   0.000000
 
 -0.3125000E+00  0.1875000E+00  0.6250000E-01  0.2343750E-01
    1       -4.081599   1.000000
    2       -0.403296   1.000000
    3        2.754586   1.000000
    4        4.183717   1.000000
    5        8.343891   0.000000
    6        9.037628   0.000000
    7       10.401319   0.000000
    8       12.159954   0.000000
 
 -0.1875000E+00  0.1875000E+00  0.6250000E-01  0.2343750E-01
    1       -4.977468   1.000000
    2        1.316995   1.000000
    3        3.055642   1.000000
    4        4.691679   1.000000
    5        8.656038   0.000000
    6        8.963556   0.000000
    7       10.274506   0.000000
    8       10.756555   0.000000
 
 -0.6250000E-01  0.1875000E+00  0.6250000E-01  0.2343750E-01
    1       -5.616002   1.000000
    2        2.789659   1.000000
    3        4.181273   1.000000
    4        5.066145   1.000000
    5        8.195755   0.000000
    6        8.856264   0.000000
    7        9.589117   0.000000
    8       10.823294   0.000000
 
  0.3125000E+00  0.3125000E+00  0.6250000E-01  0.1171875E-01
    1       -4.825695   1.000000
    2        1.461655   1.000000
    3        3.467106   1.000000
    4        3.589368   1.000000
    5        6.823620   0.000000
    6        8.489309   0.000000
    7       11.649220   0.000000
    8       11.796173   0.000000
 
  0.4375000E+00  0.3125000E+00  0.6250000E-01  0.2343750E-01
    1       -4.077970   1.000000
    2        0.228506   1.000000
    3        2.682882   1.000000
    4        3.242361   1.000000
    5        7.139498   0.000000
    6        8.326697   0.000000
    7       11.609476   0.000000
    8       12.795653   0.000000
 
 -0.4375000E+00  0.3125000E+00  0.6250000E-01  0.2343750E-01
    1       -3.184886   1.000000
    2       -0.963338   1.000000
    3        1.846226   1.000000
    4        3.210842   1.000000
    5        7.376071   0.000000
    6        9.994568   0.000000
    7       11.178556   0.000000
    8       12.703571   0.000000
 
 -0.3125000E+00  0.3125000E+00  0.6250000E-01  0.2343750E-01
    1       -3.255936   1.000000
    2       -0.869654   1.000000
    3        1.494667   1.000000
    4        3.554839   1.000000
    5        7.776984   0.000000
    6       10.725428   0.000000
    7       12.021412   0.000000
    8       12.352882   0.000000
 
 -0.1875000E+00  0.3125000E+00  0.6250000E-01  0.2343750E-01
    1       -4.147169   1.000000
    2        0.079414   1.000000
    3        2.096555   1.000000
    4        4.140157   1.000000
    5        8.407667   0.000000
    6        9.614877   0.000000
    7       11.041706   0.000000
    8       11.338620   0.000000
 
 -0.6250000E-01  0.3125000E+00  0.6250000E-01  0.2343750E-01
    1       -4.864808   1.000000
    2        0.714546   1.000000
    3        3.724908   1.000000
    4        4.592604   1.000000
    5        8.118154   0.000000
    6        8.980226   0.000000
    7        9.842255   0.000000
    8       11.536298   0.000000
 
  0.4375000E+00  0.4375000E+00  0.6250000E-01  0.1171875E-01
    1       -3.427916   1.000000
    2       -0.630265   1.000000
    3        2.779687   1.000000
    4        2.995250   1.000000
    5        6.431234   0.000627
    6        7.146279   0.000000
    7       13.954615   0.000000
    8       13.971968   0.000000
 
 -0.4375000E+00  0.4375000E+00  0.6250000E-01  0.2343750E-01
    1       -2.522435   1.000000
    2       -1.615542   1.000000
    3        2.224369   1.000000
    4        2.753343   1.000000
    5        6.864778   0.000000
    6        7.596420   0.000000
    7       13.703261   0.000000
    8       14.699930   0.000000
 
 -0.3125000E+00  0.4375000E+00  0.6250000E-01  0.2343750E-01
    1       -2.619190   1.000000
    2       -1.450856   1.000000
    3        1.498083   1.000000
    4        3.068131   1.000000
    5        7.228607   0.000000
    6        9.835935   0.000000
    7       12.165319   0.000000
    8       13.304141   0.000000
 
 -0.1875000E+00  0.4375000E+00  0.6250000E-01  0.2343750E-01
    1       -3.371971   1.000000
    2       -1.044599   1.000000
    3        2.049332   1.000000
    4        3.668334   1.000000
    5        7.897230   0.000000
    6        9.869029   0.000000
    7       11.413993   0.000000
    8       12.661581   0.000000
 
 -0.6250000E-01  0.4375000E+00  0.6250000E-01  0.2343750E-01
    1       -3.977532   1.000000
    2       -0.894811   1.000000
    3        3.550581   1.000000
    4        4.255276   1.000000
    5        7.918315   0.000000
    6        8.889788   0.000000
    7        9.667062   0.000000
    8       13.216329   0.000000
 
 -0.4375000E+00 -0.4375000E+00  0.6250000E-01  0.1171875E-01
    1       -2.573606   1.000000
    2       -1.633224   1.000000
    3        2.642319   1.000000
    4        2.874274   1.000000
    5        6.426874   0.000698
    6        6.789066   0.000000
    7       15.027369   0.000000
    8       15.093830   0.000000
 
 -0.3125000E+00 -0.4375000E+00  0.6250000E-01  0.2343750E-01
    1       -3.342705   1.000000
    2       -0.694004   1.000000
    3        2.381414   1.000000
    4        2.912575   1.000000
    5        6.952426   0.000000
    6        7.847249   0.000000
    7       12.625906   0.000000
    8       13.957475   0.000000
 
 -0.1875000E+00 -0.4375000E+00  0.6250000E-01  0.2343750E-01
    1       -3.811265   1.000000
    2       -0.434087   1.000000
    3        2.443816   1.000000
    4        3.511193   1.000000
    5        7.653473   0.000000
    6       10.183000   0.000000
    7       10.389560   0.000000
    8       11.632586   0.000000
 
 -0.3125000E+00 -0.3125000E+00  0.6250000E-01  0.1171875E-01
    1       -4.182657   1.000000
    2        0.411171   1.000000
    3        3.054696   1.000000
    4        3.235565   1.000000
    5        6.562490   0.000016
    6        7.723922   0.000000
    7       12.784678   0.000000
    8       12.868657   0.000000
 
 -0.1875000E+00 -0.3125000E+00  0.6250000E-01  0.2343750E-01
    1       -4.708888   1.000000
    2        1.117090   1.000000
    3        3.102358   1.000000
    4        3.751838   1.000000
    5        7.429869   0.000000
    6        9.002931   0.000000
    7       10.661033   0.000000
    8       11.658743   0.000000
 
 -0.1875000E+00 -0.1875000E+00  0.6250000E-01  0.1171875E-01
    1       -5.348696   1.000000
    2        2.489548   1.000000
    3        4.013857   1.000000
    4        4.044343   1.000000
    5        7.193949   0.000000
    6        9.349020   0.000000
    7       10.595132   0.000000
    8       10.759380   0.000000
 
  0.1875000E+00  0.1875000E+00  0.1875000E+00  0.3906250E-02
    1       -5.748925   1.000000
    2        2.880893   1.000000
    3        5.121571   1.000000
    4        5.121571   1.000000
    5        7.855496   0.000000
    6        8.953487   0.000000
    7        8.953487   0.000000
    8       11.302659   0.000000
 
  0.3125000E+00  0.1875000E+00  0.1875000E+00  0.1171875E-01
    1       -5.358592   1.000000
    2        2.043164   1.000000
    3        3.607602   1.000000
    4        5.139630   1.000000
    5        8.511561   0.000000
    6        9.076191   0.000000
    7        9.378966   0.000000
    8       11.370732   0.000000
 
  0.4375000E+00  0.1875000E+00  0.1875000E+00  0.1171875E-01
    1       -4.614819   1.000000
    2        0.678461   1.000000
    3        2.528056   1.000000
    4        4.633570   1.000000
    5        8.363147   0.000000
    6        9.836168   0.000000
    7       10.050613   0.000000
    8       11.654486   0.000000
 
 -0.4375000E+00  0.1875000E+00  0.1875000E+00  0.1171875E-01
    1       -3.724604   1.000000
    2       -0.805380   1.000000
    3        2.376403   1.000000
    4        4.102054   1.000000
    5        7.865512   0.000000
    6       10.019889   0.000000
    7       10.236832   0.000000
    8       13.521976   0.000000
 
 -0.3125000E+00  0.1875000E+00  0.1875000E+00  0.1171875E-01
    1       -3.709030   1.000000
    2       -0.833609   1.000000
    3        2.675480   1.000000
    4        3.784036   1.000000
    5        7.588690   0.000000
    6       10.091349   0.000000
    7       10.587216   0.000000
    8       11.568616   0.000000
 
 -0.1875000E+00  0.1875000E+00  0.1875000E+00  0.1171875E-01
    1       -4.598194   1.000000
    2        0.674569   1.000000
    3        3.286791   1.000000
    4        3.760611   1.000000
    5        7.519067   0.000000
    6        9.716059   0.000000
    7       10.371178   0.000000
    8       10.957718   0.000000
 
  0.3125000E+00  0.3125000E+00  0.1875000E+00  0.1171875E-01
    1       -5.102994   1.000000
    2        1.379114   1.000000
    3        4.114221   1.000000
    4        4.178894   1.000000
    5        7.911712   0.000000
    6        9.283611   0.000000
    7       10.205390   0.000000
    8       10.580606   0.000000
 
  0.4375000E+00  0.3125000E+00  0.1875000E+00  0.2343750E-01
    1       -4.479426   1.000000
    2        0.612167   1.000000
    3        2.584368   1.000000
    4        3.983240   1.000000
    5        8.405736   0.000000
    6        9.449569   0.000000
    7        9.941956   0.000000
    8       11.474777   0.000000
 
 -0.4375000E+00  0.3125000E+00  0.1875000E+00  0.2343750E-01
    1       -3.592244   1.000000
    2       -0.485791   1.000000
    3        1.796872   1.000000
    4        3.415218   1.000000
    5        8.861050   0.000000
    6        9.347232   0.000000
    7       10.632773   0.000000
    8       12.582482   0.000000
 
 -0.3125000E+00  0.3125000E+00  0.1875000E+00  0.2343750E-01
    1       -3.106929   1.000000
    2       -1.097236   1.000000
    3        1.800912   1.000000
    4        3.102927   1.000000
    5        8.390963   0.000000
    6        9.678580   0.000000
    7       11.417333   0.000000
    8       12.713810   0.000000
 
 -0.1875000E+00  0.3125000E+00  0.1875000E+00  0.2343750E-01
    1       -3.875789   1.000000
    2       -0.095281   1.000000
    3        2.221521   1.000000
    4        3.281466   1.000000
    5        8.119766   0.000000
    6        9.341051   0.000000
    7       10.213854   0.000000
    8       12.709794   0.000000
 
  0.4375000E+00  0.4375000E+00  0.1875000E+00  0.1171875E-01
    1       -3.984704   1.000000
    2       -0.038823   1.000000
    3        2.555122   1.000000
    4        3.429359   1.000000
    5        7.138784   0.000000
    6        9.174310   0.000000
    7       11.454546   0.000000
    8       11.786917   0.000000
 
 -0.4375000E+00  0.4375000E+00  0.1875000E+00  0.2343750E-01
    1       -3.184420   1.000000
    2       -0.833638   1.000000
    3        1.978362   1.000000
    4        2.745706   1.000000
    5        7.916182   0.000000
    6        8.934811   0.000000
    7       11.107295   0.000000
    8       13.924140   0.000000
 
 -0.3125000E+00  0.4375000E+00  0.1875000E+00  0.2343750E-01
    1       -2.379936   1.000000
    2       -1.586053   1.000000
    3        1.659994   1.000000
    4        2.244881   1.000000
    5        9.042117   0.000000
    6        9.973416   0.000000
    7       10.651838   0.000000
    8       11.658962   0.000000
 
 -0.1875000E+00  0.4375000E+00  0.1875000E+00  0.2343750E-01
    1       -2.980198   1.000000
    2       -1.040214   1.000000
    3        1.652964   1.000000
    4        2.720156   1.000000
    5        9.139899   0.000000
    6        9.567517   0.000000
    7       10.332759   0.000000
    8       12.829930   0.000000
 
 -0.4375000E+00 -0.4375000E+00  0.1875000E+00  0.1171875E-01
    1       -2.542873   1.000000
    2       -1.565877   1.000000
    3        1.764073   1.000000
    4        3.086493   1.000000
    5        6.703072   0.000000
    6        8.612844   0.000000
    7       13.614351   0.000000
    8       13.815017   0.000000
 
 -0.3125000E+00 -0.4375000E+00  0.1875000E+00  0.2343750E-01
    1       -2.442810   1.000000
    2       -1.595399   1.000000
    3        1.858046   1.000000
    4        2.459722   1.000000
    5        7.810680   0.000000
    6        8.729991   0.000000
    7       12.111584   0.000000
    8       13.228639   0.000000
 
 -0.3125000E+00 -0.3125000E+00  0.1875000E+00  0.1171875E-01
    1       -3.281521   1.000000
    2       -0.796230   1.000000
    3        2.030817   1.000000
    4        3.202389   1.000000
    5        6.856597   0.000000
    6        8.799984   0.000000
    7       12.618405   0.000000
    8       12.693141   0.000000
 
  0.3125000E+00  0.3125000E+00  0.3125000E+00  0.3906250E-02
    1       -4.995950   1.000000
    2        0.683735   1.000000
    3        4.707186   1.000000
    4        4.707186   1.000000
    5        7.403889   0.000000
    6        9.194790   0.000000
    7        9.194790   0.000000
    8       13.287006   0.000000
 
  0.4375000E+00  0.3125000E+00  0.3125000E+00  0.1171875E-01
    1       -4.518352   1.000000
    2        0.108197   1.000000
    3        3.242227   1.000000
    4        4.618798   1.000000
    5        8.123758   0.000000
    6        9.422266   0.000000
    7        9.466374   0.000000
    8       12.672564   0.000000
 
 -0.4375000E+00  0.3125000E+00  0.3125000E+00  0.1171875E-01
    1       -3.729509   1.000000
    2       -0.421579   1.000000
    3        1.716821   1.000000
    4        4.038239   1.000000
    5        7.790756   0.000000
    6       10.864418   0.000000
    7       11.046740   0.000000
    8       12.429941   0.000000
 
 -0.3125000E+00  0.3125000E+00  0.3125000E+00  0.1171875E-01
    1       -2.911824   1.000000
    2       -1.200505   1.000000
    3        1.378668   1.000000
    4        3.491012   1.000000
    5        7.170516   0.000000
    6       11.080270   0.000000
    7       12.139960   0.000000
    8       12.406868   0.000000
 
  0.4375000E+00  0.4375000E+00  0.3125000E+00  0.1171875E-01
    1       -4.205345   1.000000
    2       -0.448588   1.000000
    3        3.578086   1.000000
    4        4.054298   1.000000
    5        7.836928   0.000000
    6        9.195800   0.000000
    7        9.954498   0.000000
    8       11.999215   0.000000
 
 -0.4375000E+00  0.4375000E+00  0.3125000E+00  0.2343750E-01
    1       -3.588204   1.000000
    2       -0.806260   1.000000
    3        2.270787   1.000000
    4        3.579496   1.000000
    5        8.611474   0.000000
    6        8.960389   0.000000
    7       11.502091   0.000000
    8       11.750200   0.000000
 
 -0.3125000E+00  0.4375000E+00  0.3125000E+00  0.2343750E-01
    1       -2.774232   1.000000
    2       -1.265195   1.000000
    3        1.470700   1.000000
    4        2.867406   1.000000
    5        8.261456   0.000000
    6       10.519816   0.000000
    7       11.304344   0.000000
    8       11.832396   0.000000
 
 -0.4375000E+00 -0.4375000E+00  0.3125000E+00  0.1171875E-01
    1       -3.231107   1.000000
    2       -1.084203   1.000000
    3        1.878528   1.000000
    4        3.591163   1.000000
    5        7.320621   0.000000
    6       11.051276   0.000000
    7       11.352675   0.000000
    8       11.427490   0.000000
 
  0.4375000E+00  0.4375000E+00  0.4375000E+00  0.3906250E-02
    1       -4.110032   1.000000
    2       -0.955763   1.000000
    3        4.483391   1.000000
    4        4.483391   1.000000
    5        7.150992   0.000000
    6        9.054932   0.000000
    7        9.054932   0.000000
    8       13.399110   0.000000
 
 -0.4375000E+00  0.4375000E+00  0.4375000E+00  0.1171875E-01
    1       -3.760652   1.000000
    2       -1.130548   1.000000
    3        3.262097   1.000000
    4        4.216352   1.000000
    5        7.867595   0.000000
    6        9.188786   0.000000
    7        9.641000   0.000000
    8       13.803037   0.000000
