unknown system                          
   1.00000000000000     
     0.000000    2.898357    2.898357
     2.898357    0.000000    2.898357
     2.898357    2.898357    0.000000
   Si
     2
Direct
  0.000000  0.000000  0.000000
  0.250000  0.250000  0.250000
 
   40   40   40
 -8.3672     -6.8986     -2.8597      2.7751      8.7448      13.877      17.378      18.965      18.833      17.516    
  15.681      13.794      12.029      10.481      9.1916      8.1616      7.3678      6.7808      6.3759      6.1376    
  6.0588      6.1376      6.3758      6.7808      7.3678      8.1616      9.1916      10.481      12.029      13.794    
  15.681      17.517      18.833      18.965      17.378      13.877      8.7447      2.7751     -2.8597     -6.8986    
 -6.8986     -3.9901      1.0864      7.1142      12.799      17.132      19.597      20.196      19.341      17.666    
  15.777      13.942      12.280      10.857      9.6917      8.7713      8.0703      7.5631      7.2318      7.0676    
  7.0676      7.2317      7.5631      8.0703      8.7713      9.6917      10.857      12.280      13.942      15.777    
  17.666      19.341      20.196      19.597      17.132      12.799      7.1142      1.0864     -3.9902     -6.8986    
 -2.8597      1.0864      6.5212      12.167      16.885      19.958      21.187      20.828      19.428      17.619    
  15.788      14.078      12.572      11.308      10.284      9.4831      8.8802      8.4571      8.2046      8.1205    
  8.2046      8.4571      8.8802      9.4831      10.284      11.308      12.572      14.078      15.788      17.619    
  19.428      20.828      21.187      19.958      16.885      12.167      6.5212      1.0865     -2.8597     -4.3039    
  2.7751      7.1142      12.167      16.785      20.119      21.789      21.879      20.815      19.178      17.432    
  15.751      14.231      12.921      11.836      10.963      10.282      9.7772      9.4391      9.2687      9.2687    
  9.4391      9.7772      10.282      10.963      11.836      12.921      14.231      15.751      17.432      19.178    
  20.815      21.879      21.789      20.119      16.785      12.167      7.1142      2.7753     0.26210     0.26204    
  8.7448      12.799      16.885      20.119      21.990      22.423      21.702      20.316      18.736      17.167    
  15.709      14.423      13.331      12.429      11.703      11.136      10.723      10.469      10.383      10.469    
  10.723      11.136      11.703      12.429      13.331      14.423      15.709      17.167      18.736      20.316    
  21.702      22.423      21.990      20.119      16.885      12.799      8.7448      5.7502      4.6456      5.7502    
  13.877      17.132      19.958      21.789      22.423      22.007      20.917      19.577      18.196      16.880    
  15.691      14.659      13.785      13.058      12.462      11.994      11.666      11.494      11.494      11.666    
  11.994      12.462      13.058      13.785      14.659      15.691      16.880      18.196      19.576      20.917    
  22.007      22.423      21.789      19.958      17.132      13.877      11.003      9.3145      9.3145      11.003    
  17.378      19.597      21.187      21.879      21.702      20.917      19.867      18.739      17.634      16.613    
  15.709      14.926      14.251      13.671      13.181      12.797      12.547      12.460      12.547      12.797    
  13.181      13.671      14.251      14.926      15.709      16.613      17.634      18.739      19.867      20.917    
  21.702      21.879      21.187      19.597      17.378      15.068      13.319      12.666      13.319      15.068    
  18.965      20.196      20.828      20.815      20.316      19.577      18.739      17.894      17.099      16.384    
  15.751      15.188      14.676      14.208      13.799      13.486      13.314      13.314      13.486      13.799    
  14.208      14.676      15.188      15.751      16.384      17.099      17.894      18.739      19.576      20.316    
  20.815      20.828      20.196      18.965      17.411      15.977      15.117      15.117      15.977      17.411    
  18.833      19.341      19.428      19.178      18.736      18.196      17.634      17.099      16.616      16.185    
  15.788      15.399      15.003      14.612      14.264      14.019      13.930      14.019      14.264      14.612    
  15.004      15.399      15.788      16.185      16.616      17.099      17.634      18.196      18.736      19.178    
  19.428      19.341      18.833      17.982      17.022      16.266      15.979      16.266      17.022      17.982    
  17.516      17.666      17.619      17.432      17.167      16.880      16.613      16.384      16.185      15.994    
  15.777      15.508      15.185      14.843      14.543      14.365      14.365      14.543      14.843      15.185    
  15.508      15.777      15.994      16.185      16.384      16.613      16.880      17.167      17.432      17.619    
  17.666      17.516      17.138      16.605      16.085      15.763      15.763      16.085      16.605      17.138    
  15.681      15.777      15.788      15.751      15.709      15.691      15.709      15.751      15.788      15.777    
  15.681      15.482      15.196      14.879      14.625      14.529      14.626      14.879      15.196      15.482    
  15.681      15.777      15.788      15.751      15.709      15.691      15.709      15.751      15.788      15.777    
  15.681      15.482      15.196      14.879      14.626      14.529      14.625      14.879      15.196      15.482    
  13.794      13.942      14.078      14.231      14.423      14.659      14.926      15.188      15.399      15.508    
  15.482      15.315      15.039      14.751      14.567      14.568      14.751      15.039      15.315      15.482    
  15.508      15.399      15.188      14.926      14.659      14.423      14.231      14.078      13.942      13.794    
  13.611      13.390      13.155      12.952      12.834      12.834      12.953      13.155      13.390      13.611    
  12.029      12.280      12.572      12.921      13.331      13.785      14.251      14.676      15.003      15.185    
  15.196      15.039      14.786      14.560      14.470      14.560      14.786      15.039      15.196      15.185    
  15.003      14.676      14.251      13.785      13.331      12.921      12.572      12.280      12.029      11.797    
  11.571      11.354      11.163      11.031      10.983      11.031      11.164      11.354      11.571      11.797    
  10.481      10.857      11.308      11.836      12.429      13.058      13.671      14.208      14.612      14.843    
  14.879      14.751      14.560      14.425      14.425      14.560      14.751      14.879      14.843      14.612    
  14.208      13.671      13.058      12.429      11.836      11.308      10.857      10.481      10.163      9.8895    
  9.6511      9.4506      9.3015      9.2210      9.2210      9.3015      9.4506      9.6511      9.8895      10.163    
  9.1916      9.6917      10.284      10.963      11.703      12.462      13.181      13.799      14.264      14.543    
  14.625      14.567      14.470      14.425      14.470      14.568      14.626      14.543      14.264      13.799    
  13.181      12.462      11.703      10.963      10.284      9.6917      9.1916      8.7766      8.4335      8.1494    
  7.9186      7.7434      7.6323      7.5940      7.6323      7.7435      7.9186      8.1494      8.4334      8.7766    
  8.1616      8.7713      9.4831      10.282      11.136      11.994      12.797      13.486      14.019      14.365    
  14.529      14.568      14.560      14.560      14.568      14.529      14.365      14.019      13.486      12.797    
  11.994      11.136      10.282      9.4831      8.7713      8.1617      7.6534      7.2362      6.8967      6.6247    
  6.4158      6.2720      6.1982      6.1982      6.2721      6.4158      6.6247      6.8967      7.2362      7.6534    
  7.3678      8.0703      8.8802      9.7772      10.723      11.666      12.547      13.314      13.930      14.365    
  14.626      14.751      14.786      14.751      14.626      14.365      13.930      13.314      12.547      11.666    
  10.723      9.7772      8.8802      8.0703      7.3678      6.7770      6.2906      5.8957      5.5799      5.3348    
  5.1578      5.0498      5.0134      5.0498      5.1577      5.3348      5.5798      5.8957      6.2906      6.7770    
  6.7808      7.5631      8.4571      9.4391      10.469      11.494      12.460      13.314      14.019      14.543    
  14.879      15.039      15.039      14.879      14.543      14.019      13.314      12.460      11.494      10.469    
  9.4391      8.4571      7.5631      6.7807      6.1177      5.5690      5.1225      4.7647      4.4846      4.2758    
  4.1360      4.0656      4.0656      4.1360      4.2757      4.4846      4.7647      5.1225      5.5690      6.1178    
  6.3759      7.2318      8.2046      9.2687      10.383      11.494      12.547      13.486      14.264      14.843    
  15.196      15.315      15.196      14.843      14.264      13.486      12.547      11.494      10.383      9.2686    
  8.2046      7.2318      6.3758      5.6464      5.0400      4.5450      4.1473      3.8339      3.5955      3.4269    
  3.3259      3.2923      3.3259      3.4268      3.5955      3.8339      4.1473      4.5451      5.0400      5.6464    
  6.1376      7.0676      8.1205      9.2687      10.469      11.666      12.797      13.799      14.612      15.185    
  15.482      15.482      15.185      14.612      13.799      12.797      11.666      10.469      9.2686      8.1204    
  7.0676      6.1376      5.3418      4.6778      4.1344      3.6967      3.3501      3.0831      2.8879      2.7596    
  2.6959      2.6959      2.7595      2.8879      3.0832      3.3501      3.6967      4.1344      4.6778      5.3418    
  6.0588      7.0676      8.2046      9.4391      10.723      11.994      13.181      14.208      15.004      15.508    
  15.681      15.508      15.003      14.208      13.181      11.994      10.723      9.4391      8.2046      7.0676    
  6.0588      5.1919      4.4659      3.8701      3.3890      3.0068      2.7101      2.4886      2.3349      2.2444    
  2.2145      2.2444      2.3349      2.4886      2.7102      3.0069      3.3890      3.8701      4.4659      5.1919    
  6.1376      7.2317      8.4571      9.7772      11.136      12.462      13.671      14.676      15.399      15.777    
  15.777      15.399      14.676      13.671      12.462      11.136      9.7772      8.4571      7.2318      6.1376    
  5.1919      4.3961      3.7404      3.2094      2.7863      2.4560      2.2061      2.0270      1.9115      1.8549    
  1.8549      1.9115      2.0270      2.2061      2.4560      2.7863      3.2093      3.7404      4.3961      5.1919    
  6.3758      7.5631      8.8802      10.282      11.703      13.058      14.251      15.188      15.788      15.994    
  15.788      15.188      14.251      13.058      11.703      10.282      8.8802      7.5631      6.3758      5.3418    
  4.4659      3.7404      3.1502      2.6782      2.3080      2.0253      1.8183      1.6776      1.5961      1.5695    
  1.5961      1.6776      1.8183      2.0253      2.3080      2.6782      3.1502      3.7403      4.4659      5.3418    
  6.7808      8.0703      9.4831      10.963      12.429      13.785      14.926      15.751      16.185      16.185    
  15.751      14.926      13.785      12.429      10.963      9.4831      8.0703      6.7807      5.6464      4.6778    
  3.8701      3.2094      2.6782      2.2593      1.9369      1.6973      1.5289      1.4224      1.3709      1.3709    
  1.4224      1.5289      1.6973      1.9369      2.2593      2.6782      3.2093      3.8701      4.6778      5.6464    
  7.3678      8.7713      10.284      11.836      13.331      14.659      15.709      16.384      16.616      16.384    
  15.709      14.659      13.331      11.836      10.284      8.7713      7.3678      6.1177      5.0400      4.1344    
  3.3890      2.7863      2.3080      1.9369      1.6577      1.4568      1.3226      1.2460      1.2211      1.2460    
  1.3226      1.4568      1.6577      1.9369      2.3080      2.7863      3.3890      4.1345      5.0400      6.1177    
  8.1616      9.6917      11.308      12.921      14.423      15.691      16.613      17.099      17.099      16.613    
  15.691      14.423      12.921      11.308      9.6917      8.1617      6.7770      5.5690      4.5450      3.6967    
  3.0068      2.4560      2.0253      1.6973      1.4568      1.2901      1.1859      1.1359      1.1359      1.1859    
  1.2901      1.4568      1.6973      2.0253      2.4560      3.0069      3.6967      4.5451      5.5690      6.7771    
  9.1916      10.857      12.572      14.231      15.709      16.880      17.634      17.894      17.634      16.880    
  15.709      14.231      12.572      10.857      9.1916      7.6534      6.2906      5.1225      4.1473      3.3501    
  2.7101      2.2061      1.8183      1.5289      1.3226      1.1859      1.1083      1.0833      1.1083      1.1859    
  1.3226      1.5289      1.8183      2.2061      2.7102      3.3501      4.1473      5.1225      6.2906      7.6534    
  10.481      12.280      14.078      15.751      17.167      18.196      18.739      18.739      18.196      17.167    
  15.751      14.078      12.280      10.481      8.7766      7.2362      5.8957      4.7647      3.8339      3.0831    
  2.4886      2.0270      1.6776      1.4224      1.2460      1.1359      1.0833      1.0833      1.1359      1.2460    
  1.4224      1.6776      2.0270      2.4886      3.0832      3.8339      4.7647      5.8956      7.2362      8.7766    
  12.029      13.942      15.788      17.432      18.736      19.576      19.867      19.576      18.736      17.432    
  15.788      13.942      12.029      10.163      8.4335      6.8967      5.5799      4.4846      3.5955      2.8879    
  2.3349      1.9115      1.5961      1.3709      1.2211      1.1359      1.1083      1.1359      1.2211      1.3709    
  1.5961      1.9115      2.3349      2.8879      3.5955      4.4846      5.5798      6.8967      8.4334      10.163    
  13.794      15.777      17.619      19.178      20.316      20.917      20.917      20.316      19.178      17.619    
  15.777      13.794      11.797      9.8895      8.1494      6.6247      5.3348      4.2758      3.4269      2.7596    
  2.2444      1.8549      1.5695      1.3709      1.2460      1.1859      1.1859      1.2460      1.3709      1.5695    
  1.8549      2.2444      2.7595      3.4268      4.2757      5.3348      6.6247      8.1495      9.8895      11.797    
  15.681      17.666      19.428      20.815      21.702      22.007      21.702      20.815      19.428      17.666    
  15.681      13.611      11.571      9.6511      7.9186      6.4158      5.1578      4.1360      3.3259      2.6959    
  2.2145      1.8549      1.5961      1.4224      1.3226      1.2901      1.3226      1.4224      1.5961      1.8549    
  2.2145      2.6959      3.3259      4.1360      5.1577      6.4158      7.9186      9.6511      11.571      13.611    
  17.517      19.341      20.828      21.879      22.423      22.423      21.879      20.828      19.341      17.516    
  15.482      13.390      11.354      9.4506      7.7434      6.2720      5.0498      4.0656      3.2923      2.6959    
  2.2444      1.9115      1.6776      1.5289      1.4568      1.4568      1.5289      1.6776      1.9115      2.2444    
  2.6959      3.2923      4.0656      5.0498      6.2721      7.7435      9.4506      11.354      13.390      15.482    
  18.833      20.196      21.187      21.789      21.990      21.789      21.187      20.196      18.833      17.138    
  15.196      13.155      11.163      9.3015      7.6323      6.1982      5.0134      4.0656      3.3259      2.7595    
  2.3349      2.0270      1.8183      1.6973      1.6577      1.6973      1.8183      2.0270      2.3349      2.7595    
  3.3259      4.0656      5.0134      6.1982      7.6323      9.3015      11.163      13.155      15.196      17.138    
  18.965      19.597      19.958      20.119      20.119      19.958      19.597      18.965      17.982      16.605    
  14.879      12.952      11.031      9.2210      7.5940      6.1982      5.0498      4.1360      3.4268      2.8879    
  2.4886      2.2061      2.0253      1.9369      1.9369      2.0253      2.2061      2.4886      2.8879      3.4268    
  4.1360      5.0498      6.1982      7.5940      9.2210      11.031      12.953      14.879      16.605      17.982    
  17.378      17.132      16.885      16.785      16.885      17.132      17.378      17.411      17.022      16.085    
  14.626      12.834      10.983      9.2210      7.6323      6.2721      5.1577      4.2757      3.5955      3.0832    
  2.7102      2.4560      2.3080      2.2593      2.3080      2.4560      2.7102      3.0832      3.5955      4.2757    
  5.1577      6.2721      7.6323      9.2210      10.983      12.834      14.625      16.085      17.022      17.411    
  13.877      12.799      12.167      12.167      12.799      13.877      15.068      15.977      16.266      15.763    
  14.529      12.834      11.031      9.3015      7.7435      6.4158      5.3348      4.4846      3.8339      3.3501    
  3.0069      2.7863      2.6782      2.6782      2.7863      3.0069      3.3501      3.8339      4.4846      5.3348    
  6.4158      7.7435      9.3015      11.031      12.834      14.529      15.763      16.266      15.977      15.068    
  8.7447      7.1142      6.5212      7.1142      8.7448      11.003      13.319      15.117      15.979      15.763    
  14.625      12.953      11.164      9.4506      7.9186      6.6247      5.5798      4.7647      4.1473      3.6967    
  3.3890      3.2093      3.1502      3.2093      3.3890      3.6967      4.1473      4.7647      5.5798      6.6247    
  7.9186      9.4506      11.163      12.953      14.625      15.763      15.979      15.117      13.319      11.003    
  2.7751      1.0864      1.0865      2.7753      5.7502      9.3145      12.666      15.117      16.266      16.085    
  14.879      13.155      11.354      9.6511      8.1494      6.8967      5.8957      5.1225      4.5451      4.1344    
  3.8701      3.7404      3.7403      3.8701      4.1345      4.5451      5.1225      5.8956      6.8967      8.1495    
  9.6511      11.354      13.155      14.879      16.085      16.266      15.117      12.666      9.3145      5.7501    
 -2.8597     -3.9902     -2.8597     0.26210      4.6456      9.3145      13.319      15.977      17.022      16.605    
  15.196      13.390      11.571      9.8895      8.4334      7.2362      6.2906      5.5690      5.0400      4.6778    
  4.4659      4.3961      4.4659      4.6778      5.0400      5.5690      6.2906      7.2362      8.4334      9.8895    
  11.571      13.390      15.196      16.605      17.022      15.977      13.319      9.3145      4.6456     0.26205    
 -6.8986     -6.8986     -4.3039     0.26204      5.7502      11.003      15.068      17.411      17.982      17.138    
  15.482      13.611      11.797      10.163      8.7766      7.6534      6.7770      6.1178      5.6464      5.3418    
  5.1919      5.1919      5.3418      5.6464      6.1177      6.7771      7.6534      8.7766      10.163      11.797    
  13.611      15.482      17.138      17.982      17.411      15.068      11.003      5.7501     0.26205     -4.3038    
 -6.8986     -3.9901      1.0864      7.1142      12.799      17.132      19.597      20.196      19.341      17.666    
  15.777      13.942      12.280      10.857      9.6917      8.7713      8.0703      7.5631      7.2318      7.0676    
  7.0676      7.2317      7.5631      8.0703      8.7713      9.6917      10.857      12.280      13.942      15.777    
  17.666      19.341      20.196      19.597      17.132      12.799      7.1142      1.0864     -3.9902     -6.8986    
 -3.9901     0.13391      5.8184      11.735      16.700      19.969      21.331      21.043      19.664      17.844    
  15.994      14.264      12.740      11.457      10.419      9.6062      8.9947      8.5657      8.3097      8.2244    
  8.3097      8.5656      8.9947      9.6062      10.419      11.457      12.739      14.264      15.994      17.844    
  19.664      21.043      21.331      19.969      16.700      11.735      5.8183     0.13384     -3.9902     -5.4990    
  1.0864      5.8184      11.343      16.424      20.143      22.089      22.341      21.338      19.689      17.906    
  16.185      14.625      13.278      12.159      11.259      10.558      10.037      9.6881      9.5124      9.5124    
  9.6881      10.037      10.558      11.259      12.159      13.278      14.625      16.185      17.907      19.689    
  21.338      22.341      22.089      20.143      16.424      11.343      5.8184      1.0864     -1.6513     -1.6513    
  7.1142      11.735      16.424      20.193      22.469      23.155      22.545      21.159      19.528      17.900    
  16.384      15.041      13.897      12.951      12.188      11.592      11.157      10.889      10.799      10.889    
  11.157      11.592      12.188      12.951      13.897      15.041      16.384      17.900      19.528      21.159    
  22.545      23.155      22.469      20.193      16.424      11.735      7.1142      3.7116      2.4578      3.7115    
  12.799      16.700      20.143      22.469      23.432      23.177      22.108      20.710      19.261      17.873    
  16.613      15.514      14.579      13.798      13.157      12.652      12.297      12.112      12.112      12.297    
  12.652      13.157      13.798      14.579      15.514      16.613      17.873      19.261      20.710      22.108    
  23.177      23.432      22.469      20.143      16.700      12.799      9.3805      7.3790      7.3790      9.3806    
  17.132      19.969      22.089      23.155      23.177      22.437      21.335      20.139      18.958      17.860    
  16.880      16.025      15.283      14.641      14.097      13.668      13.388      13.290      13.388      13.668    
  14.097      14.641      15.283      16.025      16.880      17.860      18.958      20.139      21.335      22.437    
  23.177      23.155      22.089      19.969      17.132      14.231      12.052      11.242      12.052      14.231    
  19.597      21.331      22.341      22.545      22.108      21.335      20.442      19.530      18.662      17.873    
  17.167      16.530      15.944      15.404      14.928      14.563      14.362      14.362      14.563      14.928    
  15.404      15.944      16.530      17.167      17.873      18.662      19.530      20.442      21.335      22.108    
  22.545      22.341      21.331      19.597      17.502      15.604      14.475      14.475      15.604      17.502    
  20.196      21.043      21.338      21.159      20.710      20.139      19.530      18.940      18.396      17.900    
  17.432      16.966      16.486      16.006      15.573      15.263      15.149      15.263      15.573      16.006    
  16.485      16.966      17.432      17.900      18.396      18.940      19.530      20.139      20.710      21.159    
  21.338      21.043      20.196      18.925      17.551      16.489      16.090      16.489      17.551      18.925    
  19.341      19.664      19.689      19.528      19.261      18.958      18.662      18.396      18.153      17.906    
  17.619      17.261      16.829      16.356      15.934      15.683      15.683      15.934      16.356      16.829    
  17.261      17.619      17.907      18.153      18.396      18.663      18.958      19.261      19.528      19.689    
  19.664      19.341      18.698      17.859      17.068      16.586      16.586      17.068      17.859      18.698    
  17.666      17.844      17.906      17.900      17.873      17.860      17.873      17.900      17.906      17.844    
  17.666      17.342      16.878      16.371      15.972      15.820      15.972      16.371      16.878      17.342    
  17.666      17.844      17.907      17.900      17.873      17.860      17.873      17.900      17.907      17.844    
  17.666      17.342      16.878      16.371      15.972      15.820      15.972      16.371      16.878      17.342    
  15.777      15.994      16.185      16.384      16.613      16.880      17.167      17.432      17.619      17.666    
  17.516      17.138      16.605      16.085      15.763      15.763      16.085      16.605      17.138      17.516    
  17.666      17.619      17.432      17.167      16.880      16.613      16.384      16.185      15.994      15.777    
  15.508      15.185      14.843      14.543      14.365      14.365      14.543      14.843      15.185      15.508    
  13.942      14.264      14.625      15.041      15.514      16.025      16.530      16.966      17.261      17.342    
  17.138      16.678      16.111      15.647      15.468      15.647      16.111      16.678      17.138      17.342    
  17.261      16.966      16.530      16.025      15.514      15.041      14.625      14.264      13.942      13.635    
  13.328      13.027      12.761      12.575      12.508      12.575      12.761      13.027      13.328      13.634    
  12.280      12.740      13.278      13.897      14.579      15.283      15.944      16.486      16.829      16.878    
  16.605      16.111      15.592      15.264      15.264      15.593      16.111      16.605      16.878      16.829    
  16.485      15.944      15.283      14.579      13.897      13.278      12.739      12.280      11.886      11.539    
  11.230      10.966      10.767      10.659      10.659      10.767      10.966      11.230      11.539      11.886    
  10.857      11.457      12.159      12.951      13.798      14.641      15.404      16.006      16.356      16.371    
  16.085      15.647      15.264      15.114      15.264      15.647      16.085      16.371      16.356      16.006    
  15.404      14.641      13.798      12.951      12.159      11.457      10.857      10.355      9.9354      9.5847    
  9.2962      9.0747      8.9329      8.8838      8.9329      9.0747      9.2962      9.5847      9.9354      10.355    
  9.6917      10.419      11.259      12.188      13.157      14.097      14.928      15.573      15.934      15.972    
  15.763      15.468      15.264      15.264      15.468      15.763      15.972      15.934      15.573      14.928    
  14.097      13.157      12.188      11.259      10.419      9.6917      9.0816      8.5790      8.1688      7.8388    
  7.5839      7.4072      7.3160      7.3160      7.4072      7.5839      7.8388      8.1688      8.5789      9.0816    
  8.7713      9.6062      10.558      11.592      12.652      13.668      14.563      15.263      15.683      15.820    
  15.763      15.647      15.593      15.647      15.763      15.820      15.683      15.263      14.563      13.668    
  12.652      11.592      10.558      9.6062      8.7713      8.0647      7.4818      7.0088      6.6306      6.3367    
  6.1235      5.9929      5.9488      5.9930      6.1235      6.3367      6.6305      7.0087      7.4818      8.0647    
  8.0703      8.9947      10.037      11.157      12.297      13.388      14.362      15.149      15.683      15.972    
  16.085      16.111      16.111      16.085      15.972      15.683      15.149      14.362      13.388      12.297    
  11.157      10.037      8.9947      8.0703      7.2809      6.6261      6.0939      5.6682      5.3351      5.0863    
  4.9192      4.8348      4.8348      4.9191      5.0862      5.3350      5.6681      6.0939      6.6261      7.2809    
  7.5631      8.5657      9.6881      10.889      12.112      13.290      14.362      15.263      15.934      16.371    
  16.605      16.678      16.605      16.371      15.934      15.263      14.362      13.290      12.112      10.889    
  9.6881      8.5657      7.5631      6.7011      5.9821      5.3957      4.9255      4.5554      4.2735      4.0736    
  3.9534      3.9132      3.9534      4.0735      4.2735      4.5553      4.9255      5.3957      5.9822      6.7011    
  7.2318      8.3097      9.5124      10.799      12.112      13.388      14.563      15.573      16.356      16.878    
  17.138      17.138      16.878      16.356      15.573      14.563      13.388      12.112      10.799      9.5124    
  8.3097      7.2318      6.3010      5.5213      4.8833      4.3703      3.9648      3.6522      3.4227      3.2713    
  3.1958      3.1957      3.2712      3.4227      3.6522      3.9648      4.3704      4.8833      5.5213      6.3010    
  7.0676      8.2244      9.5124      10.889      12.297      13.668      14.928      16.006      16.829      17.342    
  17.516      17.342      16.829      16.006      14.928      13.668      12.297      10.889      9.5124      8.2244    
  7.0676      6.0654      5.2232      4.5320      3.9750      3.5332      3.1900      2.9328      2.7534      2.6472    
  2.6120      2.6472      2.7534      2.9328      3.1900      3.5332      3.9750      4.5320      5.2232      6.0654    
  7.0676      8.3097      9.6881      11.157      12.652      14.097      15.404      16.485      17.261      17.666    
  17.666      17.261      16.485      15.404      14.097      12.652      11.157      9.6881      8.3097      7.0676    
  5.9875      5.0764      4.3262      3.7200      3.2381      2.8617      2.5760      2.3700      2.2363      2.1705    
  2.1705      2.2363      2.3700      2.5760      2.8617      3.2381      3.7200      4.3262      5.0763      5.9875    
  7.2317      8.5656      10.037      11.592      13.157      14.641      15.944      16.966      17.619      17.844    