unknown system                          
   1.00000000000000     
     0.000000    2.898357    2.898357
     2.898357    0.000000    2.898357
     2.898357    2.898357    0.000000
   Si
     2
Direct
  0.000000  0.000000  0.000000
  0.250000  0.250000  0.250000
 
   40   40   40
 -.83671701577E+01 -.68985968858E+01 -.28597120144E+01 0.27751463601E+01 0.87447991493E+01
 0.13876846258E+02 0.17378115714E+02 0.18964745725E+02 0.18833077996E+02 0.17516479379E+02
 0.15680528113E+02 0.13794087652E+02 0.12028598896E+02 0.10480576551E+02 0.91915688450E+01
 0.81616295216E+01 0.73678123650E+01 0.67807748484E+01 0.63758611787E+01 0.61375959617E+01
 0.60587972396E+01 0.61375828729E+01 0.63758484523E+01 0.67807757389E+01 0.73678265841E+01
 0.81616429919E+01 0.91915666345E+01 0.10480558091E+02 0.12028581693E+02 0.13794093377E+02
 0.15680559674E+02 0.17516509861E+02 0.18833065561E+02 0.18964665018E+02 0.17377980335E+02
 0.13876704024E+02 0.87447034033E+01 0.27751225270E+01 -.28596824841E+01 -.68985620473E+01
 -.68985968858E+01 -.39901368370E+01 0.10864000764E+01 0.71141535841E+01 0.12799061093E+02
 0.17132281354E+02 0.19597142025E+02 0.20196273082E+02 0.19341353981E+02 0.17666189963E+02
 0.15777106833E+02 0.13941974023E+02 0.12280347684E+02 0.10857373145E+02 0.96917235087E+01
 0.87712781380E+01 0.80702690317E+01 0.75630582462E+01 0.72317964820E+01 0.70675919129E+01
 0.70675593546E+01 0.72317474022E+01 0.75630615041E+01 0.80703085965E+01 0.87712861723E+01
 0.96916895268E+01 0.10857349098E+02 0.12280354572E+02 0.13941975873E+02 0.15777088561E+02
 0.17666188057E+02 0.19341377325E+02 0.20196257810E+02 0.19597041559E+02 0.17132156404E+02
 0.12799009840E+02 0.71141769360E+01 0.10864092704E+01 -.39901791955E+01 -.68986274215E+01
 -.28597120144E+01 0.10864000764E+01 0.65211859580E+01 0.12167080305E+02 0.16885181217E+02
 0.19958240256E+02 0.21187495773E+02 0.20828372026E+02 0.19428272973E+02 0.17618726971E+02
 0.15787880526E+02 0.14077984976E+02 0.12572464396E+02 0.11307603508E+02 0.10284201169E+02
 0.94831027633E+01 0.88802241920E+01 0.84571130671E+01 0.82046226140E+01 0.81204628506E+01
 0.82046069781E+01 0.84570956649E+01 0.88802186859E+01 0.94831095316E+01 0.10284207746E+02
 0.11307596238E+02 0.12572440887E+02 0.14077957933E+02 0.15787868644E+02 0.17618738015E+02
 0.19428292916E+02 0.20828373066E+02 0.21187459702E+02 0.19958177394E+02 0.16885127235E+02
 0.12167071961E+02 0.65212340445E+01 0.10864775877E+01 -.28596541911E+01 -.43038998206E+01
 0.27751463601E+01 0.71141535841E+01 0.12167080305E+02 0.16785347919E+02 0.20119270434E+02
 0.21788768889E+02 0.21879047124E+02 0.20814942480E+02 0.19178006467E+02 0.17432124610E+02
 0.15751303203E+02 0.14230997412E+02 0.12921369318E+02 0.11835602966E+02 0.10962786284E+02
 0.10282476160E+02 0.97772282034E+01 0.94391250965E+01 0.92686501877E+01 0.92686569966E+01
 0.94391282482E+01 0.97772095779E+01 0.10282456572E+02 0.10962796158E+02 0.11835627682E+02
 0.12921365140E+02 0.14230958458E+02 0.15751272935E+02 0.17432131379E+02 0.19178026509E+02
 0.20814944610E+02 0.21879038423E+02 0.21788766930E+02 0.20119262354E+02 0.16785321274E+02
 0.12167073463E+02 0.71142188389E+01 0.27752581047E+01 0.26209657994E+00 0.26203968352E+00
 0.87447991493E+01 0.12799061093E+02 0.16885181217E+02 0.20119270434E+02 0.21990398903E+02
 0.22423231842E+02 0.21701889112E+02 0.20315719752E+02 0.18736168319E+02 0.17166652827E+02
 0.15709057520E+02 0.14422751309E+02 0.13330623852E+02 0.12429451083E+02 0.11703161636E+02
 0.11136295691E+02 0.10723173733E+02 0.10468906548E+02 0.10382682648E+02 0.10468901971E+02
 0.10723167707E+02 0.11136292038E+02 0.11703163101E+02 0.12429458020E+02 0.13330632902E+02
 0.14422755345E+02 0.15709049901E+02 0.17166633554E+02 0.18736145510E+02 0.20315704596E+02
 0.21701889785E+02 0.22423248493E+02 0.21990421931E+02 0.20119283472E+02 0.16885171473E+02
 0.12799029410E+02 0.87447603366E+01 0.57502188450E+01 0.46456281188E+01 0.57502447939E+01
 0.13876846258E+02 0.17132281354E+02 0.19958240256E+02 0.21788768889E+02 0.22423231842E+02
 0.22007145786E+02 0.20917146873E+02 0.19576540634E+02 0.18196462660E+02 0.16880129874E+02
 0.15691360184E+02 0.14659045620E+02 0.13785417307E+02 0.13057719952E+02 0.12461946623E+02
 0.11994437866E+02 0.11665744649E+02 0.11494350312E+02 0.11494346346E+02 0.11665739274E+02
 0.11994438824E+02 0.12461949772E+02 0.13057719675E+02 0.13785422136E+02 0.14659065965E+02
 0.15691383875E+02 0.16880127987E+02 0.18196425064E+02 0.19576492067E+02 0.20917119854E+02
 0.22007148943E+02 0.22423249728E+02 0.21788781319E+02 0.19958227701E+02 0.17132225526E+02
 0.13876747892E+02 0.11002724916E+02 0.93144824123E+01 0.93145262734E+01 0.11002826498E+02
 0.17378115714E+02 0.19597142025E+02 0.21187495773E+02 0.21879047124E+02 0.21701889112E+02
 0.20917146873E+02 0.19867010529E+02 0.18739475535E+02 0.17633658973E+02 0.16613242279E+02
 0.15709057023E+02 0.14925584290E+02 0.14251020118E+02 0.13670762890E+02 0.13181134633E+02
 0.12796847773E+02 0.12546813937E+02 0.12459524311E+02 0.12546815968E+02 0.12796848586E+02
 0.13181131971E+02 0.13670760203E+02 0.14251025494E+02 0.14925602728E+02 0.15709082651E+02
 0.16613259147E+02 0.17633651796E+02 0.18739441423E+02 0.19866963320E+02 0.20917107226E+02
 0.21701870308E+02 0.21879043232E+02 0.21187485623E+02 0.19597104633E+02 0.17378048102E+02
 0.15067756081E+02 0.13318554121E+02 0.12666377137E+02 0.13318604858E+02 0.15067832213E+02
 0.18964745725E+02 0.20196273082E+02 0.20828372026E+02 0.20814942480E+02 0.20315719752E+02
 0.19576540634E+02 0.18739475535E+02 0.17893832926E+02 0.17098853390E+02 0.16383551873E+02
 0.15751302816E+02 0.15188271552E+02 0.14676251744E+02 0.14208005759E+02 0.13798709932E+02
 0.13485694364E+02 0.13313898146E+02 0.13313899943E+02 0.13485698106E+02 0.13798712680E+02
 0.14208006720E+02 0.14676253919E+02 0.15188280116E+02 0.15751320149E+02 0.16383574610E+02
 0.17098872851E+02 0.17893837449E+02 0.18739455194E+02 0.19576497249E+02 0.20315670889E+02
 0.20814913856E+02 0.20828375104E+02 0.20196290810E+02 0.18964745674E+02 0.17411267882E+02
 0.15977349533E+02 0.15116733839E+02 0.15116756868E+02 0.15977398211E+02 0.17411302440E+02
 0.18833077996E+02 0.19341353981E+02 0.19428272973E+02 0.19178006467E+02 0.18736168319E+02
 0.18196462660E+02 0.17633658973E+02 0.17098853390E+02 0.16616234094E+02 0.16185392643E+02
 0.15787880327E+02 0.15398898444E+02 0.15003497311E+02 0.14611808466E+02 0.14264143023E+02
 0.14018902863E+02 0.13929665516E+02 0.14018911710E+02 0.14264155756E+02 0.14611819274E+02
 0.15003503776E+02 0.15398902772E+02 0.15787888838E+02 0.16185410441E+02 0.16616260079E+02
 0.17098879895E+02 0.17633676177E+02 0.18196463625E+02 0.18736155053E+02 0.19177987952E+02
 0.19428261180E+02 0.19341358344E+02 0.18833099450E+02 0.17981767475E+02 0.17021937621E+02
 0.16265947370E+02 0.15979280078E+02 0.16265927029E+02 0.17021904952E+02 0.17981734650E+02
 0.17516479379E+02 0.17666189963E+02 0.17618726971E+02 0.17432124610E+02 0.17166652827E+02
 0.16880129874E+02 0.16613242279E+02 0.16383551873E+02 0.16185392643E+02 0.15994321249E+02
 0.15777106371E+02 0.15507725518E+02 0.15185416642E+02 0.14843266183E+02 0.14543357279E+02
 0.14365421449E+02 0.14365431242E+02 0.14543381032E+02 0.14843292066E+02 0.15185435526E+02
 0.15507736116E+02 0.15777112533E+02 0.15994329704E+02 0.16185408803E+02 0.16383576465E+02
 0.16613273126E+02 0.16880164281E+02 0.17166685189E+02 0.17432143498E+02 0.17618720368E+02
 0.17666161326E+02 0.17516461760E+02 0.17137938102E+02 0.16605412196E+02 0.16084704255E+02
 0.15762929706E+02 0.15762882658E+02 0.16084597468E+02 0.16605317722E+02 0.17137903396E+02
 0.15680528113E+02 0.15777106833E+02 0.15787880526E+02 0.15751303203E+02 0.15709057520E+02
 0.15691360184E+02 0.15709057023E+02 0.15751302816E+02 0.15787880327E+02 0.15777106371E+02
 0.15680527513E+02 0.15482076926E+02 0.15196431664E+02 0.14878531645E+02 0.14625479562E+02
 0.14528751975E+02 0.14625504840E+02 0.14878571464E+02 0.15196470551E+02 0.15482102901E+02
 0.15680537444E+02 0.15777105690E+02 0.15787880772E+02 0.15751314979E+02 0.15709081744E+02
 0.15691389879E+02 0.15709081481E+02 0.15751315022E+02 0.15787881122E+02 0.15777105781E+02
 0.15680537271E+02 0.15482103009E+02 0.15196470892E+02 0.14878571408E+02 0.14625504343E+02
 0.14528751615E+02 0.14625479419E+02 0.14878531278E+02 0.15196431198E+02 0.15482077001E+02
 0.13794087652E+02 0.13941974023E+02 0.14077984976E+02 0.14230997412E+02 0.14422751309E+02
 0.14659045620E+02 0.14925584290E+02 0.15188271552E+02 0.15398898444E+02 0.15507725518E+02
 0.15482076926E+02 0.15314613800E+02 0.15038660717E+02 0.14750689929E+02 0.14567489964E+02
 0.14567508040E+02 0.14750735863E+02 0.15038714789E+02 0.15314656477E+02 0.15482097153E+02
 0.15507724936E+02 0.15398888965E+02 0.15188269683E+02 0.14925595587E+02 0.14659057055E+02
 0.14422745749E+02 0.14230974779E+02 0.14077968303E+02 0.13941986846E+02 0.13794128038E+02
 0.13611375832E+02 0.13390372402E+02 0.13155148738E+02 0.12952460005E+02 0.12834052105E+02
 0.12834079416E+02 0.12952520504E+02 0.13155196198E+02 0.13390374375E+02 0.13611338969E+02
 0.12028598896E+02 0.12280347684E+02 0.12572464396E+02 0.12921369318E+02 0.13330623852E+02
 0.13785417307E+02 0.14251020118E+02 0.14676251744E+02 0.15003497311E+02 0.15185416642E+02
 0.15196431664E+02 0.15038660717E+02 0.14786078055E+02 0.14559933534E+02 0.14469940352E+02
 0.14559973826E+02 0.14786138515E+02 0.15038714842E+02 0.15196462324E+02 0.15185423414E+02
 0.15003491948E+02 0.14676246460E+02 0.14251020469E+02 0.13785417470E+02 0.13330615051E+02
 0.12921350404E+02 0.12572442771E+02 0.12280332236E+02 0.12028590402E+02 0.11796805696E+02
 0.11571252091E+02 0.11353672468E+02 0.11163483038E+02 0.11030843700E+02 0.10982996941E+02
 0.11030868598E+02 0.11163519520E+02 0.11353704489E+02 0.11571271407E+02 0.11796814898E+02
 0.10480576551E+02 0.10857373145E+02 0.11307603508E+02 0.11835602966E+02 0.12429451083E+02
 0.13057719952E+02 0.13670762890E+02 0.14208005759E+02 0.14611808466E+02 0.14843266183E+02
 0.14878531645E+02 0.14750689929E+02 0.14559933534E+02 0.14425074309E+02 0.14425095513E+02
 0.14559985732E+02 0.14750747019E+02 0.14878571294E+02 0.14843282510E+02 0.14611811490E+02
 0.14208006805E+02 0.13670766200E+02 0.13057724957E+02 0.12429456025E+02 0.11835605802E+02
 0.11307596451E+02 0.10857346153E+02 0.10480531283E+02 0.10163073448E+02 0.98895065485E+01
 0.96510852295E+01 0.94506209024E+01 0.93015229480E+01 0.92210384681E+01 0.92210414196E+01
 0.93015265452E+01 0.94506203815E+01 0.96510899878E+01 0.98895316166E+01 0.10163118309E+02
 0.91915688450E+01 0.96917235087E+01 0.10284201169E+02 0.10962786284E+02 0.11703161636E+02
 0.12461946623E+02 0.13181134633E+02 0.13798709932E+02 0.14264143023E+02 0.14543357279E+02
 0.14625479562E+02 0.14567489964E+02 0.14469940352E+02 0.14425095513E+02 0.14469973080E+02
 0.14567538082E+02 0.14625521800E+02 0.14543381804E+02 0.14264152832E+02 0.13798717231E+02
 0.13181148436E+02 0.12461966856E+02 0.11703177469E+02 0.10962787359E+02 0.10284188743E+02
 0.96917107513E+01 0.91915684900E+01 0.87766468735E+01 0.84334545134E+01 0.81494470948E+01
 0.79186230227E+01 0.77434381184E+01 0.76323062318E+01 0.75940398338E+01 0.76323316026E+01
 0.77434717051E+01 0.79186443702E+01 0.81494473934E+01 0.84334406667E+01 0.87766341455E+01
 0.81616295216E+01 0.87712781380E+01 0.94831027633E+01 0.10282476160E+02 0.11136295691E+02
 0.11994437866E+02 0.12796847773E+02 0.13485694364E+02 0.14018902863E+02 0.14365421449E+02
 0.14528751975E+02 0.14567508040E+02 0.14559973826E+02 0.14559985732E+02 0.14567538082E+02
 0.14528786573E+02 0.14365447569E+02 0.14018916420E+02 0.13485704169E+02 0.12796865282E+02
 0.11994464416E+02 0.11136316096E+02 0.10282473516E+02 0.94830835921E+01 0.87712729735E+01
 0.81616641460E+01 0.76534467721E+01 0.72362244006E+01 0.68967427762E+01 0.66246650789E+01
 0.64158087774E+01 0.62720241342E+01 0.61982030357E+01 0.61982117900E+01 0.62720505065E+01
 0.64158455829E+01 0.66246892596E+01 0.68967280035E+01 0.72361686290E+01 0.76533820462E+01
 0.73678123650E+01 0.80702690317E+01 0.88802241920E+01 0.97772282034E+01 0.10723173733E+02
 0.11665744649E+02 0.12546813937E+02 0.13313898146E+02 0.13929665516E+02 0.14365431242E+02
 0.14625504840E+02 0.14750735863E+02 0.14786138515E+02 0.14750747019E+02 0.14625521800E+02
 0.14365447569E+02 0.13929678220E+02 0.13313909021E+02 0.12546825570E+02 0.11665758628E+02
 0.10723189238E+02 0.97772409834E+01 0.88802309219E+01 0.80702709133E+01 0.73678150807E+01
 0.67770419175E+01 0.62905870532E+01 0.58956786145E+01 0.55798568545E+01 0.53348428199E+01
 0.51577511096E+01 0.50497676583E+01 0.50133785961E+01 0.50497618329E+01 0.51577375045E+01
 0.53348209932E+01 0.55798301998E+01 0.58956532242E+01 0.62905685216E+01 0.67770324668E+01
 0.67807748484E+01 0.75630582462E+01 0.84571130671E+01 0.94391250965E+01 0.10468906548E+02
 0.11494350312E+02 0.12459524311E+02 0.13313899943E+02 0.14018911710E+02 0.14543381032E+02
 0.14878571464E+02 0.15038714789E+02 0.15038714842E+02 0.14878571294E+02 0.14543381804E+02
 0.14018916420E+02 0.13313909021E+02 0.12459531420E+02 0.11494350876E+02 0.10468907187E+02
 0.94391368006E+01 0.84571337979E+01 0.75630662151E+01 0.67807495215E+01 0.61177278528E+01
 0.55689895268E+01 0.51225005212E+01 0.47647052772E+01 0.44846185936E+01 0.42757705698E+01
 0.41359819416E+01 0.40656467314E+01 0.40656418780E+01 0.41359614432E+01 0.42757270921E+01
 0.44845618603E+01 0.47646647842E+01 0.51225031430E+01 0.55690329825E+01 0.61177795441E+01
 0.63758611787E+01 0.72317964820E+01 0.82046226140E+01 0.92686501877E+01 0.10382682648E+02
 0.11494346346E+02 0.12546815968E+02 0.13485698106E+02 0.14264155756E+02 0.14843292066E+02
 0.15196470551E+02 0.15314656477E+02 0.15196462324E+02 0.14843282510E+02 0.14264152832E+02
 0.13485704169E+02 0.12546825570E+02 0.11494350876E+02 0.10382676680E+02 0.92686347804E+01
 0.82046043472E+01 0.72317813202E+01 0.63758490448E+01 0.56464124707E+01 0.50399851709E+01
 0.45450450165E+01 0.41473188578E+01 0.38338938665E+01 0.35954845176E+01 0.34268575630E+01
 0.33259209909E+01 0.32922607465E+01 0.33259022198E+01 0.34268322804E+01 0.35954686406E+01
 0.38338965544E+01 0.41473377773E+01 0.45450699925E+01 0.50400064168E+01 0.56464270208E+01
 0.61375959617E+01 0.70675919129E+01 0.81204628506E+01 0.92686569966E+01 0.10468901971E+02
 0.11665739274E+02 0.12796848586E+02 0.13798712680E+02 0.14611819274E+02 0.15185435526E+02
 0.15482102901E+02 0.15482097153E+02 0.15185423414E+02 0.14611811490E+02 0.13798717231E+02
 0.12796865282E+02 0.11665758628E+02 0.10468907187E+02 0.92686347804E+01 0.81204194528E+01
 0.70675558460E+01 0.61375960245E+01 0.53418097791E+01 0.46778309674E+01 0.41344212641E+01
 0.36966572020E+01 0.33500826262E+01 0.30831276612E+01 0.28878569795E+01 0.27595674417E+01
 0.26958806112E+01 0.26958687410E+01 0.27595446840E+01 0.28878521253E+01 0.30831612869E+01
 0.33501447560E+01 0.36967099033E+01 0.41344304116E+01 0.46777993099E+01 0.53417756019E+01
 0.60587972396E+01 0.70675593546E+01 0.82046069781E+01 0.94391282482E+01 0.10723167707E+02
 0.11994438824E+02 0.13181131971E+02 0.14208006720E+02 0.15003503776E+02 0.15507736116E+02
 0.15680537444E+02 0.15507724936E+02 0.15003491948E+02 0.14208006805E+02 0.13181148436E+02
 0.11994464416E+02 0.10723189238E+02 0.94391368006E+01 0.82046043472E+01 0.70675558460E+01
 0.60588020032E+01 0.51919112678E+01 0.44659354882E+01 0.38701001356E+01 0.33889936442E+01
 0.30068483271E+01 0.27101427827E+01 0.24885589460E+01 0.23348634162E+01 0.22443796615E+01
 0.22144967279E+01 0.22443777394E+01 0.23348663598E+01 0.24885736576E+01 0.27101688547E+01
 0.30068764666E+01 0.33890114726E+01 0.38701011383E+01 0.44659238714E+01 0.51918982983E+01
 0.61375828729E+01 0.72317474022E+01 0.84570956649E+01 0.97772095779E+01 0.11136292038E+02
 0.12461949772E+02 0.13670760203E+02 0.14676253919E+02 0.15398902772E+02 0.15777112533E+02
 0.15777105690E+02 0.15398888965E+02 0.14676246460E+02 0.13670766200E+02 0.12461966856E+02
 0.11136316096E+02 0.97772409834E+01 0.84571337979E+01 0.72317813202E+01 0.61375960245E+01
 0.51919112678E+01 0.43960758881E+01 0.37403728666E+01 0.32093560867E+01 0.27863028515E+01
 0.24560396248E+01 0.22061287853E+01 0.20269632708E+01 0.19114747086E+01 0.18549319030E+01
 0.18549373131E+01 0.19114901866E+01 0.20269825795E+01 0.22061373627E+01 0.24560257788E+01
 0.27862733192E+01 0.32093342662E+01 0.37403759552E+01 0.43960960307E+01 0.51919234236E+01
 0.63758484523E+01 0.75630615041E+01 0.88802186859E+01 0.10282456572E+02 0.11703163101E+02
 0.13057719675E+02 0.14251025494E+02 0.15188280116E+02 0.15787888838E+02 0.15994329704E+02
 0.15787880772E+02 0.15188269683E+02 0.14251020469E+02 0.13057724957E+02 0.11703177469E+02
 0.10282473516E+02 0.88802309219E+01 0.75630662151E+01 0.63758490448E+01 0.53418097791E+01
 0.44659354882E+01 0.37403728666E+01 0.31502057267E+01 0.26782266532E+01 0.23080026226E+01
 0.20252781040E+01 0.18182716697E+01 0.16775697745E+01 0.15961238946E+01 0.15694882808E+01
 0.15961321631E+01 0.16775813839E+01 0.18182788539E+01 0.20252739256E+01 0.23079845378E+01
 0.26781981776E+01 0.31501748647E+01 0.37403482184E+01 0.44659219946E+01 0.53418059577E+01
 0.67807757389E+01 0.80703085965E+01 0.94831095316E+01 0.10962796158E+02 0.12429458020E+02
 0.13785422136E+02 0.14925602728E+02 0.15751320149E+02 0.16185410441E+02 0.16185408803E+02
 0.15751314979E+02 0.14925595587E+02 0.13785417470E+02 0.12429456025E+02 0.10962787359E+02
 0.94830835921E+01 0.80702709133E+01 0.67807495215E+01 0.56464124707E+01 0.46778309674E+01
 0.38701001356E+01 0.32093560867E+01 0.26782266532E+01 0.22593353502E+01 0.19369338842E+01
 0.16973365255E+01 0.15289392390E+01 0.14223593670E+01 0.13708534244E+01 0.13708571922E+01
 0.14223649092E+01 0.15289364424E+01 0.16973241067E+01 0.19369214673E+01 0.22593306881E+01
 0.26782230884E+01 0.32093387368E+01 0.38700661606E+01 0.46777991533E+01 0.56464073655E+01
 0.73678265841E+01 0.87712861723E+01 0.10284207746E+02 0.11835627682E+02 0.13330632902E+02
 0.14659065965E+02 0.15709082651E+02 0.16383574610E+02 0.16616260079E+02 0.16383576465E+02
 0.15709081744E+02 0.14659057055E+02 0.13330615051E+02 0.11835605802E+02 0.10284188743E+02
 0.87712729735E+01 0.73678150807E+01 0.61177278528E+01 0.50399851709E+01 0.41344212641E+01
 0.33889936442E+01 0.27863028515E+01 0.23080026226E+01 0.19369338842E+01 0.16577179922E+01
 0.14567916566E+01 0.13225726009E+01 0.12459742754E+01 0.12211237416E+01 0.12459794411E+01
 0.13225756299E+01 0.14567843554E+01 0.16576989079E+01 0.19369110840E+01 0.23079889158E+01
 0.27863072016E+01 0.33890151709E+01 0.41344504257E+01 0.50400109789E+01 0.61177449409E+01
 0.81616429919E+01 0.96916895268E+01 0.11307596238E+02 0.12921365140E+02 0.14422755345E+02
 0.15691383875E+02 0.16613259147E+02 0.17098872851E+02 0.17098879895E+02 0.16613273126E+02
 0.15691389879E+02 0.14422745749E+02 0.12921350404E+02 0.11307596451E+02 0.96917107513E+01
 0.81616641460E+01 0.67770419175E+01 0.55689895268E+01 0.45450450165E+01 0.36966572020E+01
 0.30068483271E+01 0.24560396248E+01 0.20252781040E+01 0.16973365255E+01 0.14567916566E+01
 0.12900633880E+01 0.11858562741E+01 0.11359375936E+01 0.11359394961E+01 0.11858600958E+01
 0.12900653623E+01 0.14567884208E+01 0.16973259647E+01 0.20252621163E+01 0.24560298945E+01
 0.30068640141E+01 0.36967080630E+01 0.45451143728E+01 0.55690414332E+01 0.67770524153E+01
 0.91915666345E+01 0.10857349098E+02 0.12572440887E+02 0.14230958458E+02 0.15709049901E+02
 0.16880127987E+02 0.17633651796E+02 0.17893837449E+02 0.17633676177E+02 0.16880164281E+02
 0.15709081481E+02 0.14230974779E+02 0.12572442771E+02 0.10857346153E+02 0.91915684900E+01
 0.76534467721E+01 0.62905870532E+01 0.51225005212E+01 0.41473188578E+01 0.33500826262E+01
 0.27101427827E+01 0.22061287853E+01 0.18182716697E+01 0.15289392390E+01 0.13225726009E+01
 0.11858562741E+01 0.11083395557E+01 0.10832799312E+01 0.11083402518E+01 0.11858564738E+01
 0.13225723105E+01 0.15289415513E+01 0.18182813166E+01 0.22061481481E+01 0.27101684463E+01
 0.33501060570E+01 0.41473313038E+01 0.51224990682E+01 0.62905771582E+01 0.76534377931E+01
 0.10480558091E+02 0.12280354572E+02 0.14077957933E+02 0.15751272935E+02 0.17166633554E+02
 0.18196425064E+02 0.18739441423E+02 0.18739455194E+02 0.18196463625E+02 0.17166685189E+02
 0.15751315022E+02 0.14077968303E+02 0.12280332236E+02 0.10480531283E+02 0.87766468735E+01
 0.72362244006E+01 0.58956786145E+01 0.47647052772E+01 0.38338938665E+01 0.30831276612E+01
 0.24885589460E+01 0.20269632708E+01 0.16775697745E+01 0.14223593670E+01 0.12459742754E+01
 0.11359375936E+01 0.10832799312E+01 0.10832777330E+01 0.11359332831E+01 0.12459717357E+01
 0.14223609756E+01 0.16775785654E+01 0.20269846682E+01 0.24885925376E+01 0.30831568868E+01
 0.38338917733E+01 0.47646594930E+01 0.58956099818E+01 0.72361740311E+01 0.87766410678E+01
 0.12028581693E+02 0.13941975873E+02 0.15787868644E+02 0.17432131379E+02 0.18736145510E+02
 0.19576492067E+02 0.19866963320E+02 0.19576497249E+02 0.18736155053E+02 0.17432143498E+02
 0.15787881122E+02 0.13941986846E+02 0.12028590402E+02 0.10163073448E+02 0.84334545134E+01
 0.68967427762E+01 0.55798568545E+01 0.44846185936E+01 0.35954845176E+01 0.28878569795E+01
 0.23348634162E+01 0.19114747086E+01 0.15961238946E+01 0.13708534244E+01 0.12211237416E+01
 0.11359394961E+01 0.11083402518E+01 0.11359332831E+01 0.12211167315E+01 0.13708520121E+01
 0.15961301174E+01 0.19114842200E+01 0.23348680180E+01 0.28878500005E+01 0.35954650097E+01
 0.44845918710E+01 0.55798308914E+01 0.68967232733E+01 0.84334424317E+01 0.10163065135E+02
 0.13794093377E+02 0.15777088561E+02 0.17618738015E+02 0.19178026509E+02 0.20315704596E+02
 0.20917119854E+02 0.20917107226E+02 0.20315670889E+02 0.19177987952E+02 0.17618720368E+02
 0.15777105781E+02 0.13794128038E+02 0.11796805696E+02 0.98895065485E+01 0.81494470948E+01
 0.66246650789E+01 0.53348428199E+01 0.42757705698E+01 0.34268575630E+01 0.27595674417E+01
 0.22443796615E+01 0.18549319030E+01 0.15694882808E+01 0.13708571922E+01 0.12459794411E+01
 0.11858600958E+01 0.11858564738E+01 0.12459717357E+01 0.13708520121E+01 0.15694894897E+01
 0.18549364808E+01 0.22443773259E+01 0.27595465647E+01 0.34268169810E+01 0.42757291152E+01
 0.53348300954E+01 0.66246941834E+01 0.81494957963E+01 0.98895335003E+01 0.11796791361E+02
 0.15680559674E+02 0.17666188057E+02 0.19428292916E+02 0.20814944610E+02 0.21701889785E+02
 0.22007148943E+02 0.21701870308E+02 0.20814913856E+02 0.19428261180E+02 0.17666161326E+02
 0.15680537271E+02 0.13611375832E+02 0.11571252091E+02 0.96510852295E+01 0.79186230227E+01
 0.64158087774E+01 0.51577511096E+01 0.41359819416E+01 0.33259209909E+01 0.26958806112E+01
 0.22144967279E+01 0.18549373131E+01 0.15961321631E+01 0.14223649092E+01 0.13225756299E+01
 0.12900653623E+01 0.13225723105E+01 0.14223609756E+01 0.15961301174E+01 0.18549364808E+01
 0.22144932397E+01 0.26958708408E+01 0.33259056179E+01 0.41359672374E+01 0.51577456248E+01
 0.64158179090E+01 0.79186453826E+01 0.96511137344E+01 0.11571279822E+02 0.13611399365E+02
 0.17516509861E+02 0.19341377325E+02 0.20828373066E+02 0.21879038423E+02 0.22423248493E+02
 0.22423249728E+02 0.21879043232E+02 0.20828375104E+02 0.19341358344E+02 0.17516461760E+02
 0.15482103009E+02 0.13390372402E+02 0.11353672468E+02 0.94506209024E+01 0.77434381184E+01
 0.62720241342E+01 0.50497676583E+01 0.40656467314E+01 0.32922607465E+01 0.26958687410E+01
 0.22443777394E+01 0.19114901866E+01 0.16775813839E+01 0.15289364424E+01 0.14567843554E+01
 0.14567884208E+01 0.15289415513E+01 0.16775785654E+01 0.19114842200E+01 0.22443773259E+01
 0.26958708408E+01 0.32922586939E+01 0.40656495367E+01 0.50497903432E+01 0.62720592948E+01
 0.77434561818E+01 0.94506099795E+01 0.11353660268E+02 0.13390393418E+02 0.15482155638E+02
 0.18833065561E+02 0.20196257810E+02 0.21187459702E+02 0.21788766930E+02 0.21990421931E+02
 0.21788781319E+02 0.21187485623E+02 0.20196290810E+02 0.18833099450E+02 0.17137938102E+02
 0.15196470892E+02 0.13155148738E+02 0.11163483038E+02 0.93015229480E+01 0.76323062318E+01
 0.61982030357E+01 0.50133785961E+01 0.40656418780E+01 0.33259022198E+01 0.27595446840E+01
 0.23348663598E+01 0.20269825795E+01 0.18182788539E+01 0.16973241067E+01 0.16576989079E+01
 0.16973259647E+01 0.18182813166E+01 0.20269846682E+01 0.23348680180E+01 0.27595465647E+01
 0.33259056179E+01 0.40656495367E+01 0.50133931706E+01 0.61982251492E+01 0.76323325477E+01
 0.93015479808E+01 0.11163499754E+02 0.13155151514E+02 0.15196457377E+02 0.17137910542E+02
 0.18964665018E+02 0.19597041559E+02 0.19958177394E+02 0.20119262354E+02 0.20119283472E+02
 0.19958227701E+02 0.19597104633E+02 0.18964745674E+02 0.17981767475E+02 0.16605412196E+02
 0.14878571408E+02 0.12952460005E+02 0.11030843700E+02 0.92210384681E+01 0.75940398338E+01
 0.61982117900E+01 0.50497618329E+01 0.41359614432E+01 0.34268322804E+01 0.28878521253E+01
 0.24885736576E+01 0.22061373627E+01 0.20252739256E+01 0.19369214673E+01 0.19369110840E+01
 0.20252621163E+01 0.22061481481E+01 0.24885925376E+01 0.28878500005E+01 0.34268169810E+01
 0.41359672374E+01 0.50497903432E+01 0.61982251492E+01 0.75940229141E+01 0.92210300200E+01
 0.11030877662E+02 0.12952505828E+02 0.14878565842E+02 0.16605339722E+02 0.17981671277E+02
 0.17377980335E+02 0.17132156404E+02 0.16885127235E+02 0.16785321274E+02 0.16885171473E+02
 0.17132225526E+02 0.17378048102E+02 0.17411267882E+02 0.17021937621E+02 0.16084704255E+02
 0.14625504343E+02 0.12834052105E+02 0.10982996941E+02 0.92210414196E+01 0.76323316026E+01
 0.62720505065E+01 0.51577375045E+01 0.42757270921E+01 0.35954686406E+01 0.30831612869E+01
 0.27101688547E+01 0.24560257788E+01 0.23079845378E+01 0.22593306881E+01 0.23079889158E+01
 0.24560298945E+01 0.27101684463E+01 0.30831568868E+01 0.35954650097E+01 0.42757291152E+01
 0.51577456248E+01 0.62720592948E+01 0.76323325477E+01 0.92210300200E+01 0.10982976588E+02
 0.12834031538E+02 0.14625488105E+02 0.16084688064E+02 0.17021909771E+02 0.17411218849E+02
 0.13876704024E+02 0.12799009840E+02 0.12167071961E+02 0.12167073463E+02 0.12799029410E+02
 0.13876747892E+02 0.15067756081E+02 0.15977349533E+02 0.16265947370E+02 0.15762929706E+02
 0.14528751615E+02 0.12834079416E+02 0.11030868598E+02 0.93015265452E+01 0.77434717051E+01
 0.64158455829E+01 0.53348209932E+01 0.44845618603E+01 0.38338965544E+01 0.33501447560E+01
 0.30068764666E+01 0.27862733192E+01 0.26781981776E+01 0.26782230884E+01 0.27863072016E+01
 0.30068640141E+01 0.33501060570E+01 0.38338917733E+01 0.44845918710E+01 0.53348300954E+01
 0.64158179090E+01 0.77434561818E+01 0.93015479808E+01 0.11030877662E+02 0.12834031538E+02
 0.14528687365E+02 0.15762921920E+02 0.16265993513E+02 0.15977378106E+02 0.15067729932E+02
 0.87447034033E+01 0.71141769360E+01 0.65212340445E+01 0.71142188389E+01 0.87447603366E+01
 0.11002724916E+02 0.13318554121E+02 0.15116733839E+02 0.15979280078E+02 0.15762882658E+02
 0.14625479419E+02 0.12952520504E+02 0.11163519520E+02 0.94506203815E+01 0.79186443702E+01
 0.66246892596E+01 0.55798301998E+01 0.47646647842E+01 0.41473377773E+01 0.36967099033E+01
 0.33890114726E+01 0.32093342662E+01 0.31501748647E+01 0.32093387368E+01 0.33890151709E+01
 0.36967080630E+01 0.41473313038E+01 0.47646594930E+01 0.55798308914E+01 0.66246941834E+01
 0.79186453826E+01 0.94506099795E+01 0.11163499754E+02 0.12952505828E+02 0.14625488105E+02
 0.15762921920E+02 0.15979336280E+02 0.15116778243E+02 0.13318560629E+02 0.11002688655E+02
 0.27751225270E+01 0.10864092704E+01 0.10864775877E+01 0.27752581047E+01 0.57502188450E+01
 0.93144824123E+01 0.12666377137E+02 0.15116756868E+02 0.16265927029E+02 0.16084597468E+02
 0.14878531278E+02 0.13155196198E+02 0.11353704489E+02 0.96510899878E+01 0.81494473934E+01
 0.68967280035E+01 0.58956532242E+01 0.51225031430E+01 0.45450699925E+01 0.41344304116E+01
 0.38701011383E+01 0.37403759552E+01 0.37403482184E+01 0.38700661606E+01 0.41344504257E+01
 0.45451143728E+01 0.51224990682E+01 0.58956099818E+01 0.68967232733E+01 0.81494957963E+01
 0.96511137344E+01 0.11353660268E+02 0.13155151514E+02 0.14878565842E+02 0.16084688064E+02
 0.16265993513E+02 0.15116778243E+02 0.12666385113E+02 0.93144665998E+01 0.57501309126E+01
 -.28596824841E+01 -.39901791955E+01 -.28596541911E+01 0.26209657994E+00 0.46456281188E+01
 0.93145262734E+01 0.13318604858E+02 0.15977398211E+02 0.17021904952E+02 0.16605317722E+02
 0.15196431198E+02 0.13390374375E+02 0.11571271407E+02 0.98895316166E+01 0.84334406667E+01
 0.72361686290E+01 0.62905685216E+01 0.55690329825E+01 0.50400064168E+01 0.46777993099E+01
 0.44659238714E+01 0.43960960307E+01 0.44659219946E+01 0.46777991533E+01 0.50400109789E+01
 0.55690414332E+01 0.62905771582E+01 0.72361740311E+01 0.84334424317E+01 0.98895335003E+01
 0.11571279822E+02 0.13390393418E+02 0.15196457377E+02 0.16605339722E+02 0.17021909771E+02
 0.15977378106E+02 0.13318560629E+02 0.93144665998E+01 0.46455658874E+01 0.26204580695E+00
 -.68985620473E+01 -.68986274215E+01 -.43038998206E+01 0.26203968352E+00 0.57502447939E+01
 0.11002826498E+02 0.15067832213E+02 0.17411302440E+02 0.17981734650E+02 0.17137903396E+02
 0.15482077001E+02 0.13611338969E+02 0.11796814898E+02 0.10163118309E+02 0.87766341455E+01
 0.76533820462E+01 0.67770324668E+01 0.61177795441E+01 0.56464270208E+01 0.53417756019E+01
 0.51918982983E+01 0.51919234236E+01 0.53418059577E+01 0.56464073655E+01 0.61177449409E+01
 0.67770524153E+01 0.76534377931E+01 0.87766410678E+01 0.10163065135E+02 0.11796791361E+02
 0.13611399365E+02 0.15482155638E+02 0.17137910542E+02 0.17981671277E+02 0.17411218849E+02
 0.15067729932E+02 0.11002688655E+02 0.57501309126E+01 0.26204580695E+00 -.43037917947E+01
 -.68985967932E+01 -.39901371265E+01 0.10863997107E+01 0.71141533599E+01 0.12799060838E+02
 0.17132280996E+02 0.19597141862E+02 0.20196273272E+02 0.19341354260E+02 0.17666190149E+02
 0.15777107097E+02 0.13941974405E+02 0.12280347859E+02 0.10857372953E+02 0.96917232431E+01
 0.87712780151E+01 0.80702688800E+01 0.75630579803E+01 0.72317963643E+01 0.70675920575E+01
 0.70675594747E+01 0.72317473348E+01 0.75630614897E+01 0.80703087688E+01 0.87712862768E+01
 0.96916894243E+01 0.10857349039E+02 0.12280354690E+02 0.13941975911E+02 0.15777088377E+02