   2   2   0   0
  0.2434757E+02  0.4098896E-09  0.4098896E-09  0.4098896E-09  0.5000000E-15
  1.000000000000000E-004
  CAR 
 unknown system                          
     14.17520260     -8.66768815  301      4.43978938      1.00000000
     -8.668  0.0000E+00  0.0000E+00
     -8.592  0.0000E+00  0.0000E+00
     -8.515  0.0000E+00  0.0000E+00
     -8.439  0.0000E+00  0.0000E+00
     -8.363  0.0000E+00  0.0000E+00
     -8.287  0.0000E+00  0.0000E+00
     -8.211  0.0000E+00  0.0000E+00
     -8.135  0.0000E+00  0.0000E+00
     -8.059  0.0000E+00  0.0000E+00
     -7.982  0.0000E+00  0.0000E+00
     -7.906  0.0000E+00  0.0000E+00
     -7.830  0.7594E-18  0.5782E-19
     -7.754  0.5316E-16  0.4106E-17
     -7.678  0.3092E-14  0.2396E-15
     -7.602  0.1346E-12  0.1049E-13
     -7.526  0.4412E-11  0.3464E-12
     -7.449  0.1089E-09  0.8640E-11
     -7.373  0.2030E-08  0.1632E-09
     -7.297  0.2861E-07  0.2342E-08
     -7.221  0.3062E-06  0.2565E-07
     -7.145  0.2498E-05  0.2159E-06
     -7.069  0.1564E-04  0.1407E-05
     -6.993  0.7582E-04  0.7181E-05
     -6.916  0.2876E-03  0.2908E-04
     -6.840  0.8648E-03  0.9492E-04
     -6.764  0.2094E-02  0.2544E-03
     -6.688  0.4159E-02  0.5711E-03
     -6.612  0.6932E-02  0.1099E-02
     -6.536  0.9998E-02  0.1860E-02
     -6.460  0.1298E-01  0.2848E-02
     -6.383  0.1574E-01  0.4047E-02
     -6.307  0.1824E-01  0.5436E-02
     -6.231  0.2028E-01  0.6980E-02
     -6.155  0.2184E-01  0.8643E-02
     -6.079  0.2350E-01  0.1043E-01
     -6.003  0.2575E-01  0.1239E-01
     -5.927  0.2816E-01  0.1454E-01
     -5.850  0.2975E-01  0.1680E-01
     -5.774  0.3047E-01  0.1912E-01
     -5.698  0.3135E-01  0.2151E-01
     -5.622  0.3317E-01  0.2403E-01
     -5.546  0.3576E-01  0.2676E-01
     -5.470  0.3862E-01  0.2970E-01
     -5.394  0.4122E-01  0.3284E-01
     -5.317  0.4289E-01  0.3610E-01
     -5.241  0.4337E-01  0.3940E-01
     -5.165  0.4369E-01  0.4273E-01
     -5.089  0.4602E-01  0.4624E-01
     -5.013  0.5161E-01  0.5017E-01
     -4.937  0.5879E-01  0.5464E-01
     -4.861  0.6439E-01  0.5955E-01
     -4.784  0.6697E-01  0.6465E-01
     -4.708  0.6730E-01  0.6977E-01
     -4.632  0.6586E-01  0.7478E-01
     -4.556  0.6229E-01  0.7953E-01
     -4.480  0.5772E-01  0.8392E-01
     -4.404  0.5555E-01  0.8815E-01
     -4.328  0.5796E-01  0.9257E-01
     -4.251  0.6238E-01  0.9732E-01
     -4.175  0.6324E-01  0.1021E+00
     -4.099  0.5754E-01  0.1065E+00
     -4.023  0.4749E-01  0.1101E+00
     -3.947  0.3781E-01  0.1130E+00
     -3.871  0.3193E-01  0.1154E+00
     -3.795  0.3098E-01  0.1178E+00
     -3.718  0.3425E-01  0.1204E+00
     -3.642  0.3904E-01  0.1234E+00
     -3.566  0.4097E-01  0.1265E+00
     -3.490  0.3668E-01  0.1293E+00
     -3.414  0.2682E-01  0.1313E+00
     -3.338  0.1566E-01  0.1325E+00
     -3.262  0.7268E-02  0.1331E+00
     -3.185  0.3063E-02  0.1333E+00
     -3.109  0.2752E-02  0.1335E+00
     -3.033  0.6472E-02  0.1340E+00
     -2.957  0.1488E-01  0.1351E+00
     -2.881  0.2673E-01  0.1372E+00
     -2.805  0.3723E-01  0.1400E+00
     -2.729  0.4111E-01  0.1431E+00
     -2.652  0.3782E-01  0.1460E+00
     -2.576  0.3206E-01  0.1485E+00
     -2.500  0.2933E-01  0.1507E+00
     -2.424  0.3262E-01  0.1532E+00
     -2.348  0.4263E-01  0.1564E+00
     -2.272  0.5814E-01  0.1609E+00
     -2.196  0.7508E-01  0.1666E+00
     -2.119  0.8713E-01  0.1732E+00
     -2.043  0.8949E-01  0.1800E+00
     -1.967  0.8222E-01  0.1863E+00
     -1.891  0.6956E-01  0.1916E+00
     -1.815  0.5683E-01  0.1959E+00
     -1.739  0.4796E-01  0.1996E+00
     -1.663  0.4389E-01  0.2029E+00
     -1.586  0.4248E-01  0.2061E+00
     -1.510  0.4069E-01  0.2092E+00
     -1.434  0.3760E-01  0.2121E+00
     -1.358  0.3518E-01  0.2148E+00
     -1.282  0.3560E-01  0.2175E+00
     -1.206  0.3794E-01  0.2204E+00
     -1.130  0.3837E-01  0.2233E+00
     -1.053  0.3420E-01  0.2259E+00
     -0.977  0.2706E-01  0.2280E+00
     -0.901  0.2140E-01  0.2296E+00
     -0.825  0.1998E-01  0.2311E+00
     -0.749  0.2167E-01  0.2328E+00
     -0.673  0.2352E-01  0.2346E+00
     -0.597  0.2368E-01  0.2364E+00
     -0.520  0.2214E-01  0.2380E+00
     -0.444  0.1978E-01  0.2395E+00
     -0.368  0.1758E-01  0.2409E+00
     -0.292  0.1665E-01  0.2422E+00
     -0.216  0.1763E-01  0.2435E+00
     -0.140  0.1962E-01  0.2450E+00
     -0.064  0.2032E-01  0.2465E+00
      0.013  0.1816E-01  0.2479E+00
      0.089  0.1384E-01  0.2490E+00
      0.165  0.9868E-02  0.2497E+00
      0.241  0.8925E-02  0.2504E+00
      0.317  0.1271E-01  0.2514E+00
      0.393  0.2153E-01  0.2530E+00
      0.469  0.3444E-01  0.2556E+00
      0.546  0.4951E-01  0.2594E+00
      0.622  0.6447E-01  0.2643E+00
      0.698  0.7744E-01  0.2702E+00
      0.774  0.8668E-01  0.2768E+00
      0.850  0.9040E-01  0.2837E+00
      0.926  0.8854E-01  0.2904E+00
      1.002  0.8450E-01  0.2969E+00
      1.079  0.8273E-01  0.3032E+00
      1.155  0.8442E-01  0.3096E+00
      1.231  0.8699E-01  0.3162E+00
      1.307  0.8830E-01  0.3229E+00
      1.383  0.8978E-01  0.3298E+00
      1.459  0.9396E-01  0.3369E+00
      1.535  0.1004E+00  0.3446E+00
      1.612  0.1059E+00  0.3526E+00
      1.688  0.1092E+00  0.3610E+00
      1.764  0.1123E+00  0.3695E+00
      1.840  0.1169E+00  0.3784E+00
      1.916  0.1201E+00  0.3875E+00
      1.992  0.1184E+00  0.3966E+00
      2.068  0.1132E+00  0.4052E+00
      2.145  0.1100E+00  0.4136E+00
      2.221  0.1111E+00  0.4220E+00
      2.297  0.1117E+00  0.4305E+00
      2.373  0.1069E+00  0.4387E+00
      2.449  0.9855E-01  0.4462E+00
      2.525  0.9404E-01  0.4533E+00
      2.601  0.9742E-01  0.4607E+00
      2.678  0.1044E+00  0.4687E+00
      2.754  0.1068E+00  0.4768E+00
      2.830  0.1007E+00  0.4845E+00
      2.906  0.8839E-01  0.4912E+00
      2.982  0.7623E-01  0.4970E+00
      3.058  0.6886E-01  0.5023E+00
      3.134  0.6536E-01  0.5072E+00
      3.211  0.6082E-01  0.5119E+00
      3.287  0.5241E-01  0.5159E+00
      3.363  0.4265E-01  0.5191E+00
      3.439  0.3565E-01  0.5218E+00
      3.515  0.3211E-01  0.5243E+00
      3.591  0.2940E-01  0.5265E+00
      3.667  0.2528E-01  0.5284E+00
      3.744  0.2003E-01  0.5300E+00
      3.820  0.1512E-01  0.5311E+00
      3.896  0.1123E-01  0.5320E+00
      3.972  0.8040E-02  0.5326E+00
      4.048  0.5195E-02  0.5330E+00
      4.124  0.2843E-02  0.5332E+00
      4.200  0.1263E-02  0.5333E+00
      4.277  0.4436E-03  0.5333E+00
      4.353  0.1215E-03  0.5333E+00
      4.429  0.2785E-04  0.5333E+00
      4.505  0.1974E-04  0.5333E+00
      4.581  0.8308E-04  0.5333E+00
      4.657  0.3447E-03  0.5334E+00
      4.733  0.1145E-02  0.5335E+00
      4.810  0.3048E-02  0.5337E+00
      4.886  0.6550E-02  0.5342E+00
      4.962  0.1154E-01  0.5351E+00
      5.038  0.1725E-01  0.5364E+00
      5.114  0.2325E-01  0.5381E+00
      5.190  0.3021E-01  0.5404E+00
      5.266  0.3881E-01  0.5434E+00
      5.343  0.4797E-01  0.5471E+00
      5.419  0.5578E-01  0.5513E+00
      5.495  0.6232E-01  0.5560E+00
      5.571  0.6979E-01  0.5614E+00
      5.647  0.7908E-01  0.5674E+00
      5.723  0.8825E-01  0.5741E+00
      5.799  0.9537E-01  0.5814E+00
      5.876  0.1015E+00  0.5891E+00
      5.952  0.1093E+00  0.5974E+00
      6.028  0.1194E+00  0.6065E+00
      6.104  0.1278E+00  0.6162E+00
      6.180  0.1283E+00  0.6260E+00
      6.256  0.1185E+00  0.6350E+00
      6.332  0.1026E+00  0.6428E+00
      6.409  0.8907E-01  0.6496E+00
      6.485  0.8344E-01  0.6560E+00
      6.561  0.8328E-01  0.6623E+00
      6.637  0.8151E-01  0.6685E+00
      6.713  0.7452E-01  0.6742E+00
      6.789  0.6659E-01  0.6793E+00
      6.865  0.6554E-01  0.6843E+00
      6.942  0.7499E-01  0.6900E+00
      7.018  0.9221E-01  0.6970E+00
      7.094  0.1123E+00  0.7055E+00
      7.170  0.1316E+00  0.7156E+00
      7.246  0.1467E+00  0.7267E+00
      7.322  0.1525E+00  0.7383E+00
      7.398  0.1459E+00  0.7494E+00
      7.475  0.1300E+00  0.7593E+00
      7.551  0.1124E+00  0.7679E+00
      7.627  0.9933E-01  0.7755E+00
      7.703  0.9260E-01  0.7825E+00
      7.779  0.9144E-01  0.7895E+00
      7.855  0.9434E-01  0.7967E+00
      7.931  0.9808E-01  0.8041E+00
      8.008  0.9858E-01  0.8116E+00
      8.084  0.9491E-01  0.8189E+00
      8.160  0.9045E-01  0.8257E+00
      8.236  0.8933E-01  0.8326E+00
      8.312  0.9393E-01  0.8397E+00
      8.388  0.1044E+00  0.8477E+00
      8.464  0.1167E+00  0.8565E+00
      8.541  0.1226E+00  0.8659E+00
      8.617  0.1168E+00  0.8748E+00
      8.693  0.1031E+00  0.8826E+00
      8.769  0.9021E-01  0.8895E+00
      8.845  0.8314E-01  0.8958E+00
      8.921  0.8021E-01  0.9019E+00
      8.997  0.7879E-01  0.9079E+00
      9.074  0.7985E-01  0.9140E+00
      9.150  0.8573E-01  0.9205E+00
      9.226  0.9496E-01  0.9278E+00
      9.302  0.1019E+00  0.9355E+00
      9.378  0.1020E+00  0.9433E+00
      9.454  0.9549E-01  0.9506E+00
      9.530  0.8502E-01  0.9570E+00
      9.607  0.7363E-01  0.9626E+00
      9.683  0.6432E-01  0.9675E+00
      9.759  0.5906E-01  0.9720E+00
      9.835  0.5695E-01  0.9764E+00
      9.911  0.5536E-01  0.9806E+00
      9.987  0.5392E-01  0.9847E+00
     10.063  0.5582E-01  0.9889E+00
     10.140  0.6384E-01  0.9938E+00
     10.216  0.7562E-01  0.9996E+00
     10.292  0.8441E-01  0.1006E+01
     10.368  0.8439E-01  0.1012E+01
     10.444  0.7475E-01  0.1018E+01
     10.520  0.6001E-01  0.1023E+01
     10.596  0.4672E-01  0.1026E+01
     10.673  0.3845E-01  0.1029E+01
     10.749  0.3404E-01  0.1032E+01
     10.825  0.3124E-01  0.1034E+01
     10.901  0.3018E-01  0.1036E+01
     10.977  0.3215E-01  0.1039E+01
     11.053  0.3680E-01  0.1042E+01
     11.129  0.4177E-01  0.1045E+01
     11.206  0.4439E-01  0.1048E+01
     11.282  0.4336E-01  0.1052E+01
     11.358  0.3886E-01  0.1054E+01
     11.434  0.3164E-01  0.1057E+01
     11.510  0.2291E-01  0.1059E+01
     11.586  0.1485E-01  0.1060E+01
     11.662  0.9851E-02  0.1061E+01
     11.739  0.8539E-02  0.1061E+01
     11.815  0.9200E-02  0.1062E+01
     11.891  0.9544E-02  0.1063E+01
     11.967  0.8982E-02  0.1063E+01
     12.043  0.8626E-02  0.1064E+01
     12.119  0.9081E-02  0.1065E+01
     12.195  0.9276E-02  0.1065E+01
     12.272  0.7932E-02  0.1066E+01
     12.348  0.5293E-02  0.1066E+01
     12.424  0.2690E-02  0.1067E+01
     12.500  0.1034E-02  0.1067E+01
     12.576  0.3002E-03  0.1067E+01
     12.652  0.6568E-04  0.1067E+01
     12.728  0.1083E-04  0.1067E+01
     12.805  0.1347E-05  0.1067E+01
     12.881  0.1261E-06  0.1067E+01
     12.957  0.8888E-08  0.1067E+01
     13.033  0.4717E-09  0.1067E+01
     13.109  0.1884E-10  0.1067E+01
     13.185  0.5660E-12  0.1067E+01
     13.261  0.1279E-13  0.1067E+01
     13.338  0.2187E-15  0.1067E+01
     13.414  0.2278E-17  0.1067E+01
     13.490  0.0000E+00  0.1067E+01
     13.566  0.0000E+00  0.1067E+01
     13.642  0.0000E+00  0.1067E+01
     13.718  0.0000E+00  0.1067E+01
     13.794  0.0000E+00  0.1067E+01
     13.871  0.0000E+00  0.1067E+01
     13.947  0.0000E+00  0.1067E+01
     14.023  0.0000E+00  0.1067E+01
     14.099  0.0000E+00  0.1067E+01
     14.175  0.0000E+00  0.1067E+01
