unknown system                          
   1.00000000000000     
    -2.450000    2.450000    1.274000
     2.450000   -2.450000    1.274000
     2.450000    2.450000   -1.274000
   Si
     2
Direct
  0.250000  0.750000  0.500000
  0.000000  0.000000  0.000000
 
   28   28   28
 -.54651891019E+01 -.39321767341E+01 0.52870291631E-01 0.49659311563E+01 0.91228237481E+01
 0.11417212882E+02 0.11669135256E+02 0.10487351258E+02 0.88041475531E+01 0.72002929115E+01
 0.58495822800E+01 0.48175283132E+01 0.41066587501E+01 0.36941814429E+01 0.35592052742E+01
 0.36942042866E+01 0.41068526034E+01 0.48178068885E+01 0.58496693307E+01 0.72001682292E+01
 0.88040526108E+01 0.10487355829E+02 0.11669094915E+02 0.11417128557E+02 0.91228232411E+01
 0.49659230242E+01 0.52657017037E-01 -.39324581449E+01 -.39324581449E+01 -.47219442898E+01
 -.25720191032E+01 0.16524320038E+01 0.63536778416E+01 0.99738046455E+01 0.11646735446E+02
 0.11418895778E+02 0.10016920310E+02 0.83320518080E+01 0.67899279961E+01 0.55256926726E+01
 0.45844868074E+01 0.39583239158E+01 0.36225727804E+01 0.35591044810E+01 0.37641661738E+01
 0.42488097688E+01 0.50352659729E+01 0.61427140374E+01 0.75576719624E+01 0.91965285522E+01
 0.10841027198E+02 0.11799143000E+02 0.11173485792E+02 0.85079495125E+01 0.41900623514E+01
 -.51763513094E+00 0.52657017037E-01 -.25722239553E+01 -.26296394308E+01 -.10452760022E+00
 0.39749292593E+01 0.80671122623E+01 0.10850323014E+02 0.11748229923E+02 0.11019165427E+02
 0.94530257940E+01 0.78047514023E+01 0.63488873564E+01 0.51882034994E+01 0.43475430305E+01
 0.38104567152E+01 0.35523991637E+01 0.35586940974E+01 0.38291060818E+01 0.43773070739E+01
 0.52258433146E+01 0.63892676090E+01 0.78434020158E+01 0.94902662967E+01 0.11072483708E+02
 0.11852336535E+02 0.11020561744E+02 0.82840509334E+01 0.41900623514E+01 0.49659230242E+01
 0.16523147687E+01 -.10461181965E+00 0.43226739164E+00 0.30252387461E+01 0.65933512109E+01
 0.97698589741E+01 0.11543288212E+02 0.11635271917E+02 0.10471823779E+02 0.88325347198E+01
 0.72509413064E+01 0.59012702277E+01 0.48548370929E+01 0.41185068032E+01 0.36702696880E+01
 0.34872864596E+01 0.35583786309E+01 0.38861352506E+01 0.44858913598E+01 0.53793613355E+01
 0.65759510670E+01 0.80424828629E+01 0.96718032846E+01 0.11185802315E+02 0.11865332054E+02
 0.11020561744E+02 0.85079495125E+01 0.91228232411E+01 0.63536840350E+01 0.39749228140E+01
 0.30252731265E+01 0.39322583433E+01 0.62852458641E+01 0.90618768101E+01 0.11157903889E+02
 0.11900370627E+02 0.11277591548E+02 0.98182417291E+01 0.81905614893E+01 0.67014523407E+01
 0.54712585410E+01 0.45427072093E+01 0.39087336837E+01 0.35448340380E+01 0.34308222404E+01
 0.35585003644E+01 0.39324119625E+01 0.45686251525E+01 0.54871506013E+01 0.66923921874E+01
 0.81446483443E+01 0.97331900724E+01 0.11185802315E+02 0.11852336535E+02 0.11173485792E+02
 0.11417128557E+02 0.99737885657E+01 0.80671226992E+01 0.65934289383E+01 0.62853603222E+01
 0.73099632647E+01 0.91780069050E+01 0.11017014636E+02 0.12029388111E+02 0.11863399587E+02
 0.10712533189E+02 0.91297237589E+01 0.75636736397E+01 0.61864398622E+01 0.50810993301E+01
 0.42671449920E+01 0.37284395944E+01 0.34405286562E+01 0.33860675577E+01 0.35590542504E+01
 0.39652013279E+01 0.46205285192E+01 0.55427733249E+01 0.67319671025E+01 0.81446483443E+01
 0.96718032846E+01 0.11072483708E+02 0.11799143000E+02 0.11669094915E+02 0.11646719412E+02
 0.10850292501E+02 0.97698620046E+01 0.90619915320E+01 0.91781491631E+01 0.10099092791E+02
 0.11345212514E+02 0.12250600781E+02 0.12322950039E+02 0.11477913298E+02 0.10036174462E+02
 0.84613152936E+01 0.69873468754E+01 0.57325833499E+01 0.47493965772E+01 0.40407471714E+01
 0.35860438542E+01 0.33624821481E+01 0.33552020894E+01 0.35596835694E+01 0.39822432732E+01
 0.46382288698E+01 0.55427733249E+01 0.66923921874E+01 0.80424828629E+01 0.94902662967E+01
 0.10841027198E+02 0.10487355829E+02 0.11418965820E+02 0.11748272107E+02 0.11543253130E+02
 0.11157894355E+02 0.11017122258E+02 0.11345338482E+02 0.12017159482E+02 0.12628515718E+02
 0.12737199603E+02 0.12116751776E+02 0.10874181599E+02 0.93628388461E+01 0.78545518838E+01
 0.64924456182E+01 0.53610594478E+01 0.44901606028E+01 0.38729006465E+01 0.34877824794E+01
 0.33142826141E+01 0.33394946651E+01 0.35599561316E+01 0.39822432732E+01 0.46205285192E+01
 0.54871506013E+01 0.65759510670E+01 0.78434020158E+01 0.91965285522E+01 0.88040526108E+01
 0.10016957714E+02 0.11019300073E+02 0.11635353299E+02 0.11900343599E+02 0.12029368847E+02
 0.12250675330E+02 0.12628601666E+02 0.13001053503E+02 0.13075055390E+02 0.12613965367E+02
 0.11592908470E+02 0.10223741328E+02 0.87561210496E+01 0.73457402358E+01 0.61029284441E+01
 0.50868072922E+01 0.43128096116E+01 0.37698590607E+01 0.34376755984E+01 0.32979936135E+01
 0.33394946651E+01 0.35596835694E+01 0.39652013279E+01 0.45686251525E+01 0.53793613355E+01
 0.63892676090E+01 0.75576719624E+01 0.72001682292E+01 0.83319359366E+01 0.94530619919E+01
 0.10471971841E+02 0.11277688962E+02 0.11863389366E+02 0.12322928992E+02 0.12737236162E+02
 0.13075098532E+02 0.13186179749E+02 0.12894211393E+02 0.12125054992E+02 0.10979361352E+02
 0.96412105336E+01 0.82604412211E+01 0.69631728269E+01 0.58352540466E+01 0.49190805575E+01
 0.42228799442E+01 0.37351357865E+01 0.34376755984E+01 0.33142826141E+01 0.33552020894E+01
 0.35590542504E+01 0.39324119625E+01 0.44858913598E+01 0.52258433146E+01 0.61427140374E+01
 0.58496693307E+01 0.67898258430E+01 0.78046300968E+01 0.88325488541E+01 0.98183645662E+01
 0.10712626298E+02 0.11477922056E+02 0.12116737081E+02 0.12613973624E+02 0.12894222906E+02
 0.12843537038E+02 0.12384505142E+02 0.11547152294E+02 0.10437938027E+02 0.91828191532E+01
 0.79105149523E+01 0.67262747507E+01 0.56992012072E+01 0.48626846291E+01 0.42228799442E+01
 0.37698590607E+01 0.34877824794E+01 0.33624821481E+01 0.33860675577E+01 0.35585003644E+01
 0.38861352506E+01 0.43773070739E+01 0.50352659729E+01 0.48178068885E+01 0.55257928587E+01
 0.63488168754E+01 0.72508363123E+01 0.81905536892E+01 0.91298057019E+01 0.10036250345E+02
 0.10874204367E+02 0.11592904068E+02 0.12125050283E+02 0.12384501653E+02 0.12297294885E+02
 0.11843109782E+02 0.11060439466E+02 0.10038049299E+02 0.88903957953E+01 0.77297165408E+01
 0.66461196768E+01 0.56992012072E+01 0.49190805575E+01 0.43128096116E+01 0.38729006465E+01
 0.35860438542E+01 0.34405286562E+01 0.34308222404E+01 0.35583786309E+01 0.38291060818E+01
 0.42488097688E+01 0.41068526034E+01 0.45846312108E+01 0.51882653326E+01 0.59012352025E+01
 0.67013883164E+01 0.75636613937E+01 0.84613602062E+01 0.93628905931E+01 0.10223767825E+02
 0.10979367053E+02 0.11547149595E+02 0.11843106550E+02 0.11807355571E+02 0.11426126158E+02
 0.10738595458E+02 0.98260283076E+01 0.87899776306E+01 0.77297165408E+01 0.67262747507E+01
 0.58352540466E+01 0.50868072922E+01 0.44901606028E+01 0.40407471714E+01 0.37284395944E+01
 0.35448340380E+01 0.34872864596E+01 0.35586940974E+01 0.37641661738E+01 0.36942042866E+01
 0.39582478252E+01 0.43474959374E+01 0.48548376942E+01 0.54712649848E+01 0.61864365644E+01
 0.69873509217E+01 0.78545714955E+01 0.87561459546E+01 0.96412314366E+01 0.10437953328E+02
 0.11060449498E+02 0.11426131863E+02 0.11477682325E+02 0.11200250083E+02 0.10626194418E+02
 0.98260283076E+01 0.88903957953E+01 0.79105149523E+01 0.69631728269E+01 0.61029284441E+01
 0.53610594478E+01 0.47493965772E+01 0.42671449920E+01 0.39087336837E+01 0.36702696880E+01
 0.35523991637E+01 0.35591044810E+01 0.35592052742E+01 0.36223163365E+01 0.38101269555E+01
 0.41182949386E+01 0.45426648289E+01 0.50811542825E+01 0.57326471277E+01 0.64924786999E+01
 0.73457469784E+01 0.82604426765E+01 0.91828321735E+01 0.10038074479E+02 0.10738620349E+02
 0.11200263914E+02 0.11361644653E+02 0.11200250083E+02 0.10738595458E+02 0.10038049299E+02
 0.91828191532E+01 0.82604412211E+01 0.73457402358E+01 0.64924456182E+01 0.57325833499E+01
 0.50810993301E+01 0.45427072093E+01 0.41185068032E+01 0.38104567152E+01 0.36225727804E+01
 0.36941814429E+01 0.35588499992E+01 0.35519377563E+01 0.36697967270E+01 0.39084503803E+01
 0.42671035714E+01 0.47495032950E+01 0.53611844080E+01 0.61029950751E+01 0.69631783736E+01
 0.79105021956E+01 0.88904044035E+01 0.98260607218E+01 0.10626225900E+02 0.11200263914E+02
 0.11477682325E+02 0.11426126158E+02 0.11060439466E+02 0.10437938027E+02 0.96412105336E+01
 0.87561210496E+01 0.78545518838E+01 0.69873468754E+01 0.61864398622E+01 0.54712585410E+01
 0.48548370929E+01 0.43475430305E+01 0.39583239158E+01 0.41066587501E+01 0.37638852879E+01
 0.35582656002E+01 0.34867557926E+01 0.35443680096E+01 0.37281948223E+01 0.40407515653E+01
 0.44903184834E+01 0.50869828184E+01 0.58353525375E+01 0.67262861737E+01 0.77296986696E+01
 0.87899852389E+01 0.98260607218E+01 0.10738620349E+02 0.11426131863E+02 0.11807355571E+02
 0.11843109782E+02 0.11547152294E+02 0.10979361352E+02 0.10223741328E+02 0.93628388461E+01
 0.84613152936E+01 0.75636736397E+01 0.67014523407E+01 0.59012702277E+01 0.51882034994E+01
 0.45844868074E+01 0.48175283132E+01 0.42484280298E+01 0.38286654287E+01 0.35578945420E+01
 0.34303581326E+01 0.34401944002E+01 0.35859168163E+01 0.38729772450E+01 0.43130131789E+01
 0.49192922772E+01 0.56993204503E+01 0.66461347980E+01 0.77296986696E+01 0.88904044035E+01
 0.10038074479E+02 0.11060449498E+02 0.11843106550E+02 0.12297294885E+02 0.12384505142E+02
 0.12125054992E+02 0.11592908470E+02 0.10874181599E+02 0.10036174462E+02 0.91297237589E+01
 0.81905614893E+01 0.72509413064E+01 0.63488873564E+01 0.55256926726E+01 0.58495822800E+01
 0.50349625911E+01 0.43768700688E+01 0.38856575407E+01 0.35580659024E+01 0.33857566622E+01
 0.33623362496E+01 0.34877931571E+01 0.37700023995E+01 0.42231124183E+01 0.48629100643E+01
 0.56993204503E+01 0.67262861737E+01 0.79105021956E+01 0.91828321735E+01 0.10437953328E+02
 0.11547149595E+02 0.12384501653E+02 0.12843537038E+02 0.12894211393E+02 0.12613965367E+02
 0.12116751776E+02 0.11477913298E+02 0.10712533189E+02 0.98182417291E+01 0.88325347198E+01
 0.78047514023E+01 0.67899279961E+01 0.72002929115E+01 0.61426882109E+01 0.52256212522E+01
 0.44855203434E+01 0.39319940914E+01 0.35587272165E+01 0.33550583208E+01 0.33142980436E+01
 0.34377778439E+01 0.37353064570E+01 0.42231124183E+01 0.49192922772E+01 0.58353525375E+01
 0.69631783736E+01 0.82604426765E+01 0.96412314366E+01 0.10979367053E+02 0.12125050283E+02
 0.12894222906E+02 0.13186179749E+02 0.13075055390E+02 0.12737199603E+02 0.12322950039E+02
 0.11863399587E+02 0.11277591548E+02 0.10471823779E+02 0.94530257940E+01 0.83320518080E+01
 0.88041475531E+01 0.75578009629E+01 0.63893256028E+01 0.53792826946E+01 0.45683861211E+01
 0.39648830915E+01 0.35594593904E+01 0.33394585597E+01 0.32980723288E+01 0.34377778439E+01
 0.37700023995E+01 0.43130131789E+01 0.50869828184E+01 0.61029950751E+01 0.73457469784E+01
 0.87561459546E+01 0.10223767825E+02 0.11592904068E+02 0.12613973624E+02 0.13075098532E+02
 0.13001053503E+02 0.12628515718E+02 0.12250600781E+02 0.12029388111E+02 0.11900370627E+02
 0.11635271917E+02 0.11019165427E+02 0.10016920310E+02 0.10487351258E+02 0.91965974464E+01
 0.78435179527E+01 0.65760894252E+01 0.54872178830E+01 0.46204133964E+01 0.39819980780E+01
 0.35597740253E+01 0.33394585597E+01 0.33142980436E+01 0.34877931571E+01 0.38729772450E+01
 0.44903184834E+01 0.53611844080E+01 0.64924786999E+01 0.78545714955E+01 0.93628905931E+01
 0.10874204367E+02 0.12116737081E+02 0.12737236162E+02 0.12628601666E+02 0.12017159482E+02
 0.11345212514E+02 0.11017014636E+02 0.11157903889E+02 0.11543288212E+02 0.11748229923E+02
 0.11418895778E+02 0.11669135256E+02 0.10841088327E+02 0.94903165035E+01 0.80425808041E+01
 0.66925884296E+01 0.55429319592E+01 0.46381639913E+01 0.39819980780E+01 0.35594593904E+01
 0.33550583208E+01 0.33623362496E+01 0.35859168163E+01 0.40407515653E+01 0.47495032950E+01
 0.57326471277E+01 0.69873509217E+01 0.84613602062E+01 0.10036250345E+02 0.11477922056E+02
 0.12322928992E+02 0.12250675330E+02 0.11345338482E+02 0.10099092791E+02 0.91780069050E+01
 0.90618768101E+01 0.97698589741E+01 0.10850323014E+02 0.11646735446E+02 0.11417212882E+02
 0.11799314260E+02 0.11072622908E+02 0.96718469070E+01 0.81447351601E+01 0.67321846399E+01
 0.55429319592E+01 0.46204133964E+01 0.39648830915E+01 0.35587272165E+01 0.33857566622E+01
 0.34401944002E+01 0.37281948223E+01 0.42671035714E+01 0.50811542825E+01 0.61864365644E+01
 0.75636613937E+01 0.91298057019E+01 0.10712626298E+02 0.11863389366E+02 0.12029368847E+02
 0.11017122258E+02 0.91781491631E+01 0.73099632647E+01 0.62852458641E+01 0.65933512109E+01
 0.80671122623E+01 0.99738046455E+01 0.91228237481E+01 0.11173634248E+02 0.11852616754E+02
 0.11185995740E+02 0.97332331581E+01 0.81447351601E+01 0.66925884296E+01 0.54872178830E+01
 0.45683861211E+01 0.39319940914E+01 0.35580659024E+01 0.34303581326E+01 0.35443680096E+01
 0.39084503803E+01 0.45426648289E+01 0.54712649848E+01 0.67013883164E+01 0.81905536892E+01
 0.98183645662E+01 0.11277688962E+02 0.11900343599E+02 0.11157894355E+02 0.90619915320E+01
 0.62853603222E+01 0.39322583433E+01 0.30252387461E+01 0.39749292593E+01 0.63536778416E+01
 0.49659311563E+01 0.85079404095E+01 0.11020750380E+02 0.11865655066E+02 0.11185995740E+02
 0.96718469070E+01 0.80425808041E+01 0.65760894252E+01 0.53792826946E+01 0.44855203434E+01
 0.38856575407E+01 0.35578945420E+01 0.34867557926E+01 0.36697967270E+01 0.41182949386E+01
 0.48548376942E+01 0.59012352025E+01 0.72508363123E+01 0.88325488541E+01 0.10471971841E+02
 0.11635353299E+02 0.11543253130E+02 0.97698620046E+01 0.65934289383E+01 0.30252731265E+01
 0.43226739164E+00 -.10452760022E+00 0.16524320038E+01 0.52870291631E-01 0.41900835341E+01
 0.82840389963E+01 0.11020750380E+02 0.11852616754E+02 0.11072622908E+02 0.94903165035E+01
 0.78435179527E+01 0.63893256028E+01 0.52256212522E+01 0.43768700688E+01 0.38286654287E+01
 0.35582656002E+01 0.35519377563E+01 0.38101269555E+01 0.43474959374E+01 0.51882653326E+01
 0.63488168754E+01 0.78046300968E+01 0.94530619919E+01 0.11019300073E+02 0.11748272107E+02
 0.10850292501E+02 0.80671226992E+01 0.39749228140E+01 -.10461181965E+00 -.26296394308E+01
 -.25720191032E+01 -.39321767341E+01 -.51738365716E+00 0.41900835341E+01 0.85079404095E+01
 0.11173634248E+02 0.11799314260E+02 0.10841088327E+02 0.91965974464E+01 0.75578009629E+01
 0.61426882109E+01 0.50349625911E+01 0.42484280298E+01 0.37638852879E+01 0.35588499992E+01
 0.36223163365E+01 0.39582478252E+01 0.45846312108E+01 0.55257928587E+01 0.67898258430E+01
 0.83319359366E+01 0.10016957714E+02 0.11418965820E+02 0.11646719412E+02 0.99737885657E+01
 0.63536840350E+01 0.16523147687E+01 -.25722239553E+01 -.47219442898E+01 -.39318413374E+01
 -.28227572262E+01 0.64764899349E+00 0.51295906878E+01 0.90358764150E+01 0.11254615653E+02
 0.11531683769E+02 0.10391581319E+02 0.87194913890E+01 0.71078700422E+01 0.57390194658E+01
 0.46840623573E+01 0.39483723175E+01 0.35081995101E+01 0.33393866549E+01 0.34312936954E+01
 0.37901279729E+01 0.44371945509E+01 0.53986795960E+01 0.66802638949E+01 0.82299692636E+01
 0.99019252806E+01 0.11234250458E+02 0.11349169178E+02 0.95962149005E+01 0.60278614411E+01
 0.15735661920E+01 -.22361815903E+01 -.28229879214E+01 -.39319046675E+01 -.22360976454E+01
 0.15735507572E+01 0.60277150784E+01 0.95961125669E+01 0.11349130827E+02 0.11234167012E+02
 0.99018647841E+01 0.82300793955E+01 0.66804359952E+01 0.53986732285E+01 0.44370363583E+01
 0.37900485661E+01 0.34313468076E+01 0.33394620791E+01 0.35083110407E+01 0.39485819627E+01
 0.46842178322E+01 0.57389254183E+01 0.71076363565E+01 0.87193763659E+01 0.10391593112E+02
 0.11531669635E+02 0.11254610485E+02 0.90359936074E+01 0.51296947496E+01 0.64752918925E+00
 0.76671667574E+00 -.21055152842E+01 -.25717935711E+01 -.45901276216E+00 0.33560963361E+01
 0.73988800138E+01 0.10308057649E+02 0.11401558087E+02 0.10832654208E+02 0.93364933425E+01
 0.76990081012E+01 0.62345316219E+01 0.50573230435E+01 0.41995285461E+01 0.36462812945E+01
 0.33707064454E+01 0.33552511549E+01 0.35984767681E+01 0.41147630533E+01 0.49291605106E+01
 0.60612318349E+01 0.74949828221E+01 0.91435860323E+01 0.10787241612E+02 0.11754381057E+02
 0.11215703117E+02 0.87930591572E+01 0.49085167424E+01 0.54235875303E+01 0.19133524532E+01
 -.21722335581E+00 -.10431176679E+00 0.21745655805E+01 0.56465786223E+01 0.89470744204E+01
 0.10971956519E+02 0.11316985052E+02 0.10315481522E+02 0.87268798165E+01 0.71519445078E+01
 0.57922472151E+01 0.47312230591E+01 0.39819976098E+01 0.35229329311E+01 0.33286947444E+01
 0.33861798826E+01 0.36979796438E+01 0.42809481902E+01 0.51597198904E+01 0.63487007498E+01
 0.78220291445E+01 0.94815215113E+01 0.11080380891E+02 0.11930513723E+02 0.11298982117E+02
 0.89516804538E+01 0.94905811445E+01 0.65742636829E+01 0.38681044939E+01 0.24936405303E+01
 0.30254676931E+01 0.51908055168E+01 0.80217269921E+01 0.10360377140E+02 0.11410406322E+02
 0.11037041448E+02 0.97025458941E+01 0.81037065838E+01 0.66157459339E+01 0.53750684313E+01
 0.44352793563E+01 0.37936804589E+01 0.34250651243E+01 0.33071364833E+01 0.34309769806E+01
 0.38021198932E+01 0.44385761432E+01 0.53633132729E+01 0.65852699960E+01 0.80706573166E+01
 0.97149892520E+01 0.11264633551E+02 0.12070547142E+02 0.11516374420E+02 0.11819719858E+02
 0.10288348927E+02 0.81259699674E+01 0.62641880420E+01 0.55475343614E+01 0.62854834735E+01
 0.80879556506E+01 0.10085071635E+02 0.11388493113E+02 0.11516831219E+02 0.10561956950E+02
 0.90478227191E+01 0.74974492247E+01 0.61168752231E+01 0.50026123608E+01 0.41824399689E+01
 0.36424372546E+01 0.33568558965E+01 0.33070698263E+01 0.34874807245E+01 0.39053594675E+01
 0.45787121217E+01 0.55279587060E+01 0.67568243170E+01 0.82259523263E+01 0.98294551005E+01
 0.11330207346E+02 0.12159239744E+02 0.12158817937E+02 0.12114624139E+02 0.11156362298E+02
 0.97696207340E+01 0.86758859455E+01 0.84456545717E+01 0.91782279311E+01 0.10449195752E+02
 0.11555484628E+02 0.11899310236E+02 0.11281465674E+02 0.99537930106E+01 0.84077071653E+01
 0.69391206428E+01 0.56794328863E+01 0.46914408418E+01 0.39832075418E+01 0.35345447830E+01
 0.33213678755E+01 0.33285245142E+01 0.35526547510E+01 0.40017474159E+01 0.46929020064E+01
 0.56434384465E+01 0.68524545112E+01 0.82773876792E+01 0.98152536646E+01 0.11263258241E+02
 0.11050686703E+02 0.12022368105E+02 0.12289228359E+02 0.11889607180E+02 0.11198032245E+02
 0.10717482241E+02 0.10780133815E+02 0.11345381884E+02 0.12025525348E+02 0.12318992393E+02
 0.11899635217E+02 0.10788366869E+02 0.93169286117E+01 0.78200231275E+01 0.64574050131E+01
 0.53233692497E+01 0.44542805511E+01 0.38454008208E+01 0.34745380497E+01 0.33203649789E+01
 0.33705021971E+01 0.36229149512E+01 0.40856183152E+01 0.47741518717E+01 0.57024104635E+01
 0.68655536895E+01 0.82199213508E+01 0.96690187311E+01 0.93949948179E+01 0.10688645298E+02
 0.11712927083E+02 0.12249101187E+02 0.12320891239E+02 0.12178333797E+02 0.12125901962E+02
 0.12313116373E+02 0.12628600171E+02 0.12768761884E+02 0.12433165870E+02 0.11517774753E+02
 0.10186558381E+02 0.87287232738E+01 0.73195930534E+01 0.60761084088E+01 0.50634605075E+01
 0.42999032673E+01 0.37742545049E+01 0.34652005166E+01 0.33542937844E+01 0.34311664269E+01
 0.36945955094E+01 0.41522603704E+01 0.48176821890E+01 0.57011325838E+01 0.67944768203E+01
 0.80547750631E+01 0.77897761508E+01 0.90058783578E+01 0.10191363554E+02 0.11221734039E+02
 0.11947601177E+02 0.12363119802E+02 0.12600948333E+02 0.12806075704E+02 0.13006425238E+02
 0.13075043078E+02 0.12812033255E+02 0.12089062632E+02 0.10957359945E+02 0.96174026652E+01
 0.82340033996E+01 0.69358392925E+01 0.58127635208E+01 0.49093502925E+01 0.42336207721E+01
 0.37727244951E+01 0.35076116366E+01 0.34223226914E+01 0.35080448720E+01 0.37642937989E+01
 0.41982994352E+01 0.48212428436E+01 0.56396429218E+01 0.66426699448E+01 0.64183857657E+01
 0.74392410282E+01 0.85228492932E+01 0.95934782791E+01 0.10579106960E+02 0.11402414809E+02
 0.12028176732E+02 0.12493535536E+02 0.12830684054E+02 0.13000170412E+02 0.12894128244E+02
 0.12410853802E+02 0.11546963115E+02 0.10416016936E+02 0.91477199699E+01 0.78703177127E+01
 0.66906941544E+01 0.56786445176E+01 0.48663966508E+01 0.42579714197E+01 0.38416859214E+01
 0.36010706788E+01 0.35222832981E+01 0.35980766231E+01 0.38289568634E+01 0.42217211727E+01
 0.47849821918E+01 0.55214768422E+01 0.53531934924E+01 0.61341847001E+01 0.70233417935E+01
 0.79744623417E+01 0.89340056188E+01 0.98528943011E+01 0.10693386129E+02 0.11418495261E+02
 0.11999542783E+02 0.12400163241E+02 0.12553474416E+02 0.12384402186E+02 0.11865182069E+02
 0.11037209412E+02 0.99859417656E+01 0.88245783609E+01 0.76655308120E+01 0.65981981560E+01
 0.56796757924E+01 0.49366324134E+01 0.43731073682E+01 0.39798251955E+01 0.37428438071E+01
 0.36504786855E+01 0.36974831875E+01 0.38857394151E+01 0.42216352466E+01 0.47110706649E+01
 0.46033842613E+01 0.51439629399E+01 0.58062708487E+01 0.65667952947E+01 0.73942509237E+01
 0.82541419217E+01 0.91131683065E+01 0.99393234152E+01 0.10695574200E+02 0.11331051923E+02
 0.11778800435E+02 0.11967213737E+02 0.11843026673E+02 0.11394267314E+02 0.10660054604E+02
 0.97218387789E+01 0.86813679716E+01 0.76365996673E+01 0.66650115083E+01 0.58173407236E+01
 0.51192092591E+01 0.45766572316E+01 0.41832478239E+01 0.39278090480E+01 0.38014395585E+01
 0.38015895304E+01 0.39318254484E+01 0.41980402969E+01 0.41518295410E+01 0.44674070216E+01
 0.49052164081E+01 0.54535250472E+01 0.60968091992E+01 0.68173406560E+01 0.75956077446E+01
 0.84088906743E+01 0.92272052542E+01 0.10007298354E+02 0.10688629743E+02 0.11197174338E+02
 0.11459933227E+02 0.11426070756E+02 0.11084948792E+02 0.10471869463E+02 0.96588639141E+01
 0.87356037909E+01 0.77893333416E+01 0.68908952711E+01 0.60888944376E+01 0.54100447420E+01
 0.48630803280E+01 0.44449129263E+01 0.41481367057E+01 0.39678244710E+01 0.39048498373E+01
 0.39644809622E+01 0.39814343134E+01 0.40850283135E+01 0.43102331135E+01 0.46501638831E+01
 0.50961350381E+01 0.56405360674E+01 0.62768045106E+01 0.69961974613E+01 0.77826360725E+01
 0.86070180397E+01 0.94225622893E+01 0.10163974245E+02 0.10753817665E+02 0.11117095966E+02
 0.11200211666E+02 0.10986719573E+02 0.10502760982E+02 0.98097661497E+01 0.89880281269E+01
 0.81183909239E+01 0.72685573313E+01 0.64866145705E+01 0.58007070652E+01 0.52226759940E+01
 0.47540966360E+01 0.43932489024E+01 0.41407230296E+01 0.40012777503E+01 0.40851797682E+01
 0.39813864718E+01 0.40010267789E+01 0.41404189084E+01 0.43930132104E+01 0.47539336413E+01
 0.52225578442E+01 0.58006330854E+01 0.64865675399E+01 0.72684980788E+01 0.81183233944E+01
 0.89879974296E+01 0.98097798750E+01 0.10502779426E+02 0.10986725226E+02 0.11200221075E+02
 0.11117108645E+02 0.10753822977E+02 0.10163999528E+02 0.94226435721E+01 0.86071347671E+01
 0.77827422890E+01 0.69962967537E+01 0.62769245498E+01 0.56406618264E+01 0.50962482465E+01
 0.46503075587E+01 0.43104329662E+01 0.44674463917E+01 0.41518487409E+01 0.39643501152E+01
 0.39045609109E+01 0.39675031753E+01 0.41478844778E+01 0.44447426820E+01 0.48629864461E+01
 0.54100240470E+01 0.60889021871E+01 0.68908771395E+01 0.77893013257E+01 0.87356060507E+01
 0.96588968094E+01 0.10471893287E+02 0.11084964279E+02 0.11426104020E+02 0.11459975219E+02
 0.11197210831E+02 0.10688695646E+02 0.10007425677E+02 0.92273570775E+01 0.84090218652E+01
 0.75957402298E+01 0.68174964708E+01 0.60969298807E+01 0.54535565302E+01 0.49052150514E+01
 0.51438152819E+01 0.46032662737E+01 0.41979364773E+01 0.39316420845E+01 0.38013244567E+01
 0.38011781367E+01 0.39276048472E+01 0.41831121752E+01 0.45766128120E+01 0.51192516873E+01
 0.58173943938E+01 0.66650144287E+01 0.76365860014E+01 0.86813927646E+01 0.97218831222E+01
 0.10660080054E+02 0.11394293780E+02 0.11843078156E+02 0.11967259535E+02 0.11778827255E+02
 0.11331116542E+02 0.10695707750E+02 0.99394676107E+01 0.91132830762E+01 0.82542778655E+01
 0.73944248325E+01 0.65668983060E+01 0.58062123582E+01 0.61340555922E+01 0.53529539831E+01
 0.47108538382E+01 0.42214488830E+01 0.38855358435E+01 0.36972810276E+01 0.36503192938E+01
 0.37427261317E+01 0.39797616495E+01 0.43731439356E+01 0.49367463946E+01 0.56797592878E+01
 0.65982057650E+01 0.76655375139E+01 0.88246383900E+01 0.99860065875E+01 0.11037236567E+02
 0.11865200356E+02 0.12384416037E+02 0.12553434636E+02 0.12400088828E+02 0.11999537691E+02
 0.11418586515E+02 0.10693482366E+02 0.98529590313E+01 0.89341165393E+01 0.79746264605E+01
 0.70234112149E+01 0.74392602343E+01 0.64182258664E+01 0.55212303544E+01 0.47847467010E+01
 0.42214999256E+01 0.38287578820E+01 0.35979517995E+01 0.35222335059E+01 0.36010510803E+01
 0.38417180583E+01 0.42581070956E+01 0.48665737559E+01 0.56787375422E+01 0.66907081335E+01
 0.78703712729E+01 0.91478374449E+01 0.10416099876E+02 0.11546961324E+02 0.12410796103E+02
 0.12893996231E+02 0.12999926799E+02 0.12830424416E+02 0.12493422019E+02 0.12028210645E+02
 0.11402455108E+02 0.10579114583E+02 0.95935448007E+01 0.85229689077E+01 0.90059271712E+01
 0.77897377004E+01 0.66425249701E+01 0.56394658720E+01 0.48210518578E+01 0.41980807697E+01
 0.37641183866E+01 0.35079945185E+01 0.34223595031E+01 0.35076692412E+01 0.37728441819E+01
 0.42338407669E+01 0.49095613603E+01 0.58128525215E+01 0.69358822210E+01 0.82341329309E+01
 0.96175717585E+01 0.10957415589E+02 0.12088962183E+02 0.12811811047E+02 0.13074672762E+02
 0.13005919924E+02 0.12805628592E+02 0.12600754739E+02 0.12363123502E+02 0.11947609221E+02
 0.11221705073E+02 0.10191383257E+02 0.10688639560E+02 0.93949710561E+01 0.80546894817E+01
 0.67943852645E+01 0.57010662145E+01 0.48175621715E+01 0.41520646705E+01 0.36944531362E+01
 0.34311652982E+01 0.33543608403E+01 0.34652815903E+01 0.37744224690E+01 0.43001671379E+01
 0.50636709148E+01 0.60761931706E+01 0.73196889409E+01 0.87289248794E+01 0.10186724494E+02
 0.11517730275E+02 0.12432910657E+02 0.12768345347E+02 0.12628001289E+02 0.12312414362E+02
 0.12125363394E+02 0.12178135037E+02 0.12320904972E+02 0.12249113166E+02 0.11712903280E+02
 0.12022398935E+02 0.11050693071E+02 0.96689470372E+01 0.82198197010E+01 0.68655427361E+01
 0.57024556876E+01 0.47740903526E+01 0.40854421126E+01 0.36227922041E+01 0.33704969335E+01
 0.33203862114E+01 0.34745824475E+01 0.38455736735E+01 0.44545447307E+01 0.53235501861E+01
 0.64574885122E+01 0.78201733931E+01 0.93171584766E+01 0.10788460214E+02 0.11899454869E+02
 0.12318607453E+02 0.12024992293E+02 0.11344683067E+02 0.10779400364E+02 0.10716996084E+02
 0.11197900506E+02 0.11889654765E+02 0.12289276752E+02 0.12114725196E+02 0.12158936212E+02
 0.11263307766E+02 0.98151733680E+01 0.82773157878E+01 0.68525377770E+01 0.56435606137E+01
 0.46928545323E+01 0.40015638530E+01 0.35525168333E+01 0.33284537763E+01 0.33212861715E+01
 0.35345234878E+01 0.39833609382E+01 0.46916689989E+01 0.56795610865E+01 0.69392016781E+01
 0.84078945448E+01 0.99540026400E+01 0.11281458593E+02 0.11899038723E+02 0.11555078887E+02
 0.10448693546E+02 0.91776097984E+01 0.84450758459E+01 0.86755773635E+01 0.97695916019E+01
 0.11156441215E+02 0.10288433270E+02 0.11819864118E+02 0.12159439936E+02 0.11330304214E+02
 0.98294029503E+01 0.82259537810E+01 0.67569943938E+01 0.55280987473E+01 0.45786237828E+01
 0.39051393300E+01 0.34872970116E+01 0.33069001567E+01 0.33566662263E+01 0.36423669888E+01
 0.41825696016E+01 0.50027772474E+01 0.61169386811E+01 0.74975314403E+01 0.90480318779E+01
 0.10562124908E+02 0.11516755206E+02 0.11388229966E+02 0.10084770547E+02 0.80876136777E+01
 0.62850887234E+01 0.55472399796E+01 0.62641173191E+01 0.81260322752E+01 0.65743657180E+01
 0.94906331993E+01 0.11516529046E+02 0.12070783286E+02 0.11264751073E+02 0.97149856328E+01
 0.80707544019E+01 0.65854955109E+01 0.53634095718E+01 0.44384126400E+01 0.38018582735E+01
 0.34307455860E+01 0.33068831662E+01 0.34248192443E+01 0.37936124675E+01 0.44353927555E+01
 0.53751564555E+01 0.66157505053E+01 0.81037995878E+01 0.97027642344E+01 0.11037169022E+02
 0.11410322425E+02 0.10360215607E+02 0.80215990594E+01 0.51906672707E+01 0.30253407938E+01
 0.24936559165E+01 0.38682464445E+01 0.19136069689E+01 0.54236595919E+01 0.89516696985E+01
 0.11299106374E+02 0.11930719454E+02 0.11080477665E+02 0.94815693705E+01 0.78222148240E+01
 0.63489335127E+01 0.51597302707E+01 0.42807143346E+01 0.36977055095E+01 0.33859346803E+01
 0.33284211558E+01 0.35227214989E+01 0.39819925861E+01 0.47313258292E+01 0.57922536591E+01
 0.71519028264E+01 0.87269822415E+01 0.10315685965E+02 0.11317079328E+02 0.10971920356E+02
 0.89470566968E+01 0.56466026823E+01 0.21745713231E+01 -.10423782118E+00 -.21698392586E+00
 -.21052064622E+01 0.76695337722E+00 0.49085047187E+01 0.87929805917E+01 0.11215768899E+02
 0.11754501552E+02 0.10787287428E+02 0.91436770828E+01 0.74952213233E+01 0.60614173109E+01
 0.49290738863E+01 0.41145033349E+01 0.35982481887E+01 0.33550561102E+01 0.33705046633E+01
 0.36461953566E+01 0.41996185054E+01 0.50573981247E+01 0.62344492861E+01 0.76989271541E+01
 0.93365862020E+01 0.10832812795E+02 0.11401625095E+02 0.10308097200E+02 0.73989823148E+01
 0.33561755270E+01 -.45899100267E+00 -.25716580276E+01 0.53871003709E-01 0.76755001187E+00
 0.34344253995E+01 0.69718078757E+01 0.10044862747E+02 0.11689133942E+02 0.11669682573E+02
 0.10438326225E+02 0.87728961518E+01 0.71751622090E+01 0.58100095236E+01 0.47466966387E+01
 0.39918845572E+01 0.35227804662E+01 0.33146313546E+01 0.33547531421E+01 0.36463899671E+01
 0.42082335082E+01 0.50669615373E+01 0.62355594967E+01 0.76792810702E+01 0.92839658792E+01
 0.10757729993E+02 0.11384392516E+02 0.10514401199E+02 0.80530916667E+01 0.46620079256E+01
 0.15742342645E+01 0.64827080717E+00 -.51636491580E+00 0.64828977144E+00 0.36507270066E+01
 0.72735888017E+01 0.10183846749E+02 0.11534890416E+02 0.11248381597E+02 0.98891177820E+01
 0.82403726131E+01 0.67083421768E+01 0.54324112190E+01 0.44656525299E+01 0.38044371754E+01
 0.34228631017E+01 0.32983624101E+01 0.34228089790E+01 0.38044652199E+01 0.44657319570E+01
 0.54323757433E+01 0.67082302453E+01 0.82404062881E+01 0.98893349831E+01 0.11248610034E+02
 0.11535082135E+02 0.10184107105E+02 0.72738754871E+01 0.36508596788E+01 0.34344063948E+01
 0.76743230765E+00 0.53815715328E-01 0.15741693331E+01 0.46617888498E+01 0.80528018236E+01