   2   2   0   0
  0.1529437E+02  0.3691622E-09  0.3691622E-09  0.3691622E-09  0.5000000E-15
  1.000000000000000E-004
  CAR 
 unknown system                          
     23.49580530     -6.52330788  301      9.07026553      1.00000000
     -6.523  0.0000E+00  0.0000E+00
     -6.423  0.0000E+00  0.0000E+00
     -6.323  0.0000E+00  0.0000E+00
     -6.223  0.0000E+00  0.0000E+00
     -6.123  0.0000E+00  0.0000E+00
     -6.023  0.0000E+00  0.0000E+00
     -5.923  0.0000E+00  0.0000E+00
     -5.823  0.0000E+00  0.0000E+00
     -5.723  0.0000E+00  0.0000E+00
     -5.623  0.3930E-16  0.3932E-17
     -5.523  0.8227E-14  0.8272E-15
     -5.423  0.1049E-11  0.1058E-12
     -5.323  0.8176E-10  0.8287E-11
     -5.222  0.3903E-08  0.3989E-09
     -5.122  0.1143E-06  0.1183E-07
     -5.022  0.2055E-05  0.2175E-06
     -4.922  0.2274E-04  0.2493E-05
     -4.822  0.1551E-03  0.1802E-04
     -4.722  0.6552E-03  0.8358E-04
     -4.622  0.1731E-02  0.2568E-03
     -4.522  0.2977E-02  0.5547E-03
     -4.422  0.3877E-02  0.9426E-03
     -4.322  0.5368E-02  0.1480E-02
     -4.222  0.8781E-02  0.2358E-02
     -4.122  0.1277E-01  0.3636E-02
     -4.022  0.1443E-01  0.5080E-02
     -3.922  0.1342E-01  0.6423E-02
     -3.822  0.1131E-01  0.7555E-02
     -3.722  0.9325E-02  0.8488E-02
     -3.621  0.9446E-02  0.9433E-02
     -3.521  0.1340E-01  0.1077E-01
     -3.421  0.1918E-01  0.1269E-01
     -3.321  0.2210E-01  0.1490E-01
     -3.221  0.2046E-01  0.1695E-01
     -3.121  0.1737E-01  0.1869E-01
     -3.021  0.1542E-01  0.2023E-01
     -2.921  0.1568E-01  0.2180E-01
     -2.821  0.1892E-01  0.2370E-01
     -2.721  0.2225E-01  0.2592E-01
     -2.621  0.2272E-01  0.2820E-01
     -2.521  0.2344E-01  0.3054E-01
     -2.421  0.2652E-01  0.3320E-01
     -2.321  0.2711E-01  0.3591E-01
     -2.221  0.2288E-01  0.3820E-01
     -2.121  0.2022E-01  0.4022E-01
     -2.020  0.2361E-01  0.4258E-01
     -1.920  0.2786E-01  0.4537E-01
     -1.820  0.2705E-01  0.4808E-01
     -1.720  0.2266E-01  0.5035E-01
     -1.620  0.1826E-01  0.5217E-01
     -1.520  0.1528E-01  0.5370E-01
     -1.420  0.1642E-01  0.5535E-01
     -1.320  0.2317E-01  0.5767E-01
     -1.220  0.3156E-01  0.6082E-01
     -1.120  0.3705E-01  0.6453E-01
     -1.020  0.3953E-01  0.6849E-01
     -0.920  0.4016E-01  0.7250E-01
     -0.820  0.3944E-01  0.7645E-01
     -0.720  0.4076E-01  0.8053E-01
     -0.620  0.4470E-01  0.8500E-01
     -0.519  0.4236E-01  0.8924E-01
     -0.419  0.2951E-01  0.9219E-01
     -0.319  0.1561E-01  0.9376E-01
     -0.219  0.9420E-02  0.9470E-01
     -0.119  0.1164E-01  0.9586E-01
     -0.019  0.2119E-01  0.9798E-01
      0.081  0.3541E-01  0.1015E+00
      0.181  0.4649E-01  0.1062E+00
      0.281  0.4853E-01  0.1110E+00
      0.381  0.4486E-01  0.1155E+00
      0.481  0.3987E-01  0.1195E+00
      0.581  0.3365E-01  0.1229E+00
      0.681  0.3065E-01  0.1259E+00
      0.781  0.3783E-01  0.1297E+00
      0.881  0.4873E-01  0.1346E+00
      0.981  0.4961E-01  0.1396E+00
      1.082  0.4178E-01  0.1438E+00
      1.182  0.3704E-01  0.1475E+00
      1.282  0.3828E-01  0.1513E+00
      1.382  0.4053E-01  0.1553E+00
      1.482  0.4046E-01  0.1594E+00
      1.582  0.3701E-01  0.1631E+00
      1.682  0.3029E-01  0.1661E+00
      1.782  0.2412E-01  0.1685E+00
      1.882  0.2448E-01  0.1710E+00
      1.982  0.3166E-01  0.1742E+00
      2.082  0.3958E-01  0.1781E+00
      2.182  0.4489E-01  0.1826E+00
      2.282  0.4733E-01  0.1873E+00
      2.382  0.4476E-01  0.1918E+00
      2.482  0.3907E-01  0.1957E+00
      2.582  0.3642E-01  0.1994E+00
      2.683  0.3743E-01  0.2031E+00
      2.783  0.3903E-01  0.2070E+00
      2.883  0.4089E-01  0.2111E+00
      2.983  0.4285E-01  0.2154E+00
      3.083  0.4250E-01  0.2197E+00
      3.183  0.3803E-01  0.2235E+00
      3.283  0.3232E-01  0.2267E+00
      3.383  0.3311E-01  0.2300E+00
      3.483  0.4267E-01  0.2343E+00
      3.583  0.4999E-01  0.2393E+00
      3.683  0.4405E-01  0.2437E+00
      3.783  0.2957E-01  0.2467E+00
      3.883  0.1995E-01  0.2487E+00
      3.983  0.2237E-01  0.2509E+00
      4.083  0.3502E-01  0.2544E+00
      4.184  0.5151E-01  0.2595E+00
      4.284  0.6355E-01  0.2659E+00
      4.384  0.6429E-01  0.2723E+00
      4.484  0.5492E-01  0.2778E+00
      4.584  0.4610E-01  0.2824E+00
      4.684  0.4967E-01  0.2874E+00
      4.784  0.6486E-01  0.2939E+00
      4.884  0.7385E-01  0.3013E+00
      4.984  0.6339E-01  0.3076E+00
      5.084  0.4287E-01  0.3119E+00
      5.184  0.2854E-01  0.3148E+00
      5.284  0.2860E-01  0.3176E+00
      5.384  0.4434E-01  0.3221E+00
      5.484  0.6491E-01  0.3286E+00
      5.584  0.7190E-01  0.3358E+00
      5.684  0.6139E-01  0.3419E+00
      5.785  0.4612E-01  0.3465E+00
      5.885  0.3773E-01  0.3503E+00
      5.985  0.4069E-01  0.3544E+00
      6.085  0.5303E-01  0.3597E+00
      6.185  0.6393E-01  0.3661E+00
      6.285  0.6451E-01  0.3725E+00
      6.385  0.5994E-01  0.3785E+00
      6.485  0.5737E-01  0.3843E+00
      6.585  0.5817E-01  0.3901E+00
      6.685  0.6379E-01  0.3965E+00
      6.785  0.6968E-01  0.4035E+00
      6.885  0.6633E-01  0.4101E+00
      6.985  0.5521E-01  0.4156E+00
      7.085  0.4702E-01  0.4203E+00
      7.185  0.4549E-01  0.4249E+00
      7.285  0.4411E-01  0.4293E+00
      7.386  0.4031E-01  0.4333E+00
      7.486  0.4448E-01  0.4378E+00
      7.586  0.6396E-01  0.4442E+00
      7.686  0.8757E-01  0.4529E+00
      7.786  0.9997E-01  0.4629E+00
      7.886  0.9932E-01  0.4729E+00
      7.986  0.8993E-01  0.4819E+00
      8.086  0.7147E-01  0.4890E+00
      8.186  0.4614E-01  0.4936E+00
      8.286  0.2488E-01  0.4961E+00
      8.386  0.1584E-01  0.4977E+00
      8.486  0.1754E-01  0.4995E+00
      8.586  0.2780E-01  0.5023E+00
      8.686  0.4548E-01  0.5068E+00
      8.786  0.6246E-01  0.5131E+00
      8.887  0.7008E-01  0.5201E+00
      8.987  0.7163E-01  0.5272E+00
      9.087  0.7289E-01  0.5345E+00
      9.187  0.7038E-01  0.5416E+00
      9.287  0.6249E-01  0.5478E+00
      9.387  0.5603E-01  0.5534E+00
      9.487  0.5493E-01  0.5589E+00
      9.587  0.5524E-01  0.5645E+00
      9.687  0.5152E-01  0.5696E+00
      9.787  0.4430E-01  0.5740E+00
      9.887  0.3843E-01  0.5779E+00
      9.987  0.3415E-01  0.5813E+00
     10.087  0.2888E-01  0.5842E+00
     10.187  0.2481E-01  0.5867E+00
     10.287  0.2478E-01  0.5892E+00
     10.387  0.2596E-01  0.5918E+00
     10.488  0.2655E-01  0.5944E+00
     10.588  0.3081E-01  0.5975E+00
     10.688  0.4130E-01  0.6016E+00
     10.788  0.5533E-01  0.6072E+00
     10.888  0.6866E-01  0.6140E+00
     10.988  0.7710E-01  0.6217E+00
     11.088  0.7634E-01  0.6294E+00
     11.188  0.6428E-01  0.6358E+00
     11.288  0.4723E-01  0.6405E+00
     11.388  0.3497E-01  0.6440E+00
     11.488  0.3058E-01  0.6471E+00
     11.588  0.3341E-01  0.6504E+00
     11.688  0.4435E-01  0.6549E+00
     11.788  0.6346E-01  0.6612E+00
     11.888  0.8684E-01  0.6699E+00
     11.988  0.1051E+00  0.6804E+00
     12.089  0.1091E+00  0.6914E+00
     12.189  0.1034E+00  0.7017E+00
     12.289  0.1012E+00  0.7118E+00
     12.389  0.1005E+00  0.7219E+00
     12.489  0.9044E-01  0.7309E+00
     12.589  0.7547E-01  0.7385E+00
     12.689  0.6335E-01  0.7448E+00
     12.789  0.5241E-01  0.7501E+00
     12.889  0.4544E-01  0.7546E+00
     12.989  0.4616E-01  0.7592E+00
     13.089  0.4701E-01  0.7639E+00
     13.189  0.4259E-01  0.7682E+00
     13.289  0.3840E-01  0.7720E+00
     13.389  0.3908E-01  0.7760E+00
     13.489  0.4624E-01  0.7806E+00
     13.589  0.6012E-01  0.7866E+00
     13.690  0.7303E-01  0.7939E+00
     13.790  0.7832E-01  0.8017E+00
     13.890  0.8161E-01  0.8099E+00
     13.990  0.8933E-01  0.8188E+00
     14.090  0.9596E-01  0.8284E+00
     14.190  0.8965E-01  0.8374E+00
     14.290  0.7281E-01  0.8447E+00
     14.390  0.6092E-01  0.8508E+00
     14.490  0.5744E-01  0.8565E+00
     14.590  0.5473E-01  0.8620E+00
     14.690  0.5339E-01  0.8674E+00
     14.790  0.6075E-01  0.8734E+00
     14.890  0.7781E-01  0.8812E+00
     14.990  0.9530E-01  0.8908E+00
     15.090  0.9952E-01  0.9007E+00
     15.191  0.8638E-01  0.9094E+00
     15.291  0.6759E-01  0.9161E+00
     15.391  0.5360E-01  0.9215E+00
     15.491  0.4374E-01  0.9259E+00
     15.591  0.3737E-01  0.9296E+00
     15.691  0.3600E-01  0.9332E+00
     15.791  0.3763E-01  0.9370E+00
     15.891  0.3842E-01  0.9408E+00
     15.991  0.3808E-01  0.9446E+00
     16.091  0.4217E-01  0.9489E+00
     16.191  0.5423E-01  0.9543E+00
     16.291  0.6615E-01  0.9609E+00
     16.391  0.6772E-01  0.9677E+00
     16.491  0.6201E-01  0.9739E+00
     16.591  0.5573E-01  0.9795E+00
     16.691  0.4866E-01  0.9843E+00
     16.792  0.4134E-01  0.9885E+00
     16.892  0.3591E-01  0.9921E+00
     16.992  0.3087E-01  0.9952E+00
     17.092  0.2441E-01  0.9976E+00
     17.192  0.1803E-01  0.9994E+00
     17.292  0.1502E-01  0.1001E+01
     17.392  0.1636E-01  0.1003E+01
     17.492  0.1935E-01  0.1004E+01
     17.592  0.2392E-01  0.1007E+01
     17.692  0.3345E-01  0.1010E+01
     17.792  0.4458E-01  0.1015E+01
     17.892  0.5013E-01  0.1020E+01
     17.992  0.5002E-01  0.1025E+01
     18.092  0.4664E-01  0.1029E+01
     18.192  0.3930E-01  0.1033E+01
     18.292  0.2947E-01  0.1036E+01
     18.393  0.2173E-01  0.1038E+01
     18.493  0.1801E-01  0.1040E+01
     18.593  0.1729E-01  0.1042E+01
     18.693  0.1925E-01  0.1044E+01
     18.793  0.2300E-01  0.1046E+01
     18.893  0.2552E-01  0.1049E+01
     18.993  0.2433E-01  0.1051E+01
     19.093  0.2076E-01  0.1053E+01
     19.193  0.1755E-01  0.1055E+01
     19.293  0.1500E-01  0.1056E+01
     19.393  0.1223E-01  0.1058E+01
     19.493  0.9585E-02  0.1059E+01
     19.593  0.8076E-02  0.1059E+01
     19.693  0.7263E-02  0.1060E+01
     19.793  0.6034E-02  0.1061E+01
     19.894  0.4864E-02  0.1061E+01
     19.994  0.4227E-02  0.1062E+01
     20.094  0.3492E-02  0.1062E+01
     20.194  0.2374E-02  0.1062E+01
     20.294  0.1242E-02  0.1062E+01
     20.394  0.5486E-03  0.1062E+01
     20.494  0.5912E-03  0.1063E+01
     20.594  0.1562E-02  0.1063E+01
     20.694  0.3274E-02  0.1063E+01
     20.794  0.4737E-02  0.1064E+01
     20.894  0.4825E-02  0.1064E+01
     20.994  0.3466E-02  0.1064E+01
     21.094  0.1747E-02  0.1065E+01
     21.194  0.8514E-03  0.1065E+01
     21.294  0.1379E-02  0.1065E+01
     21.394  0.3338E-02  0.1065E+01
     21.495  0.5406E-02  0.1066E+01
     21.595  0.5438E-02  0.1066E+01
     21.695  0.3385E-02  0.1067E+01
     21.795  0.1303E-02  0.1067E+01
     21.895  0.3098E-03  0.1067E+01
     21.995  0.4546E-04  0.1067E+01
     22.095  0.4110E-05  0.1067E+01
     22.195  0.2285E-06  0.1067E+01
     22.295  0.7806E-08  0.1067E+01
     22.395  0.1635E-09  0.1067E+01
     22.495  0.2097E-11  0.1067E+01
     22.595  0.1645E-13  0.1067E+01
     22.695  0.7859E-16  0.1067E+01
     22.795  0.0000E+00  0.1067E+01
     22.895  0.0000E+00  0.1067E+01
     22.995  0.0000E+00  0.1067E+01
     23.096  0.0000E+00  0.1067E+01
     23.196  0.0000E+00  0.1067E+01
     23.296  0.0000E+00  0.1067E+01
     23.396  0.0000E+00  0.1067E+01
     23.496  0.0000E+00  0.1067E+01
