<?xml version="1.0" encoding="ISO-8859-1"?>
<modeling>
 <generator>
  <i name="program" type="string">vasp </i>
  <i name="version" type="string">5.4.4.18Apr17-6-g9f103f2a35  </i>
  <i name="subversion" type="string">(build Dec 09 2018 21:25:21) complex            parallel </i>
  <i name="platform" type="string">IFC18.0.1.163_CrayMPICH7.7.0_MKL18.0.1.163 </i>
  <i name="date" type="string">2019 03 18 </i>
  <i name="time" type="string">04:37:22 </i>
 </generator>
 <incar>
  <i type="string" name="PREC">normal</i>
  <i type="int" name="IBRION">     2</i>
  <i name="EDIFF">      0.00040000</i>
  <i name="EDIFFG">     -0.01000000</i>
  <i type="int" name="NSW">    15</i>
  <i type="int" name="ISIF">     2</i>
  <i name="ENCUT">    250.00000000</i>
  <i type="int" name="NBANDS">     8</i>
  <i type="logical" name="LREAL"> F  </i>
  <i type="int" name="ISMEAR">     0</i>
  <i name="SIGMA">      0.20000000</i>
  <v type="int" name="KPOINT_BSE">    -1     0     0     0</v>
 </incar>
 <structure name="primitive_cell" >
  <crystal>
   <varray name="basis" >
    <v>      -2.45000000       2.45000000       1.27400000 </v>
    <v>       2.45000000      -2.45000000       1.27400000 </v>
    <v>       2.45000000       2.45000000      -1.27400000 </v>
   </varray>
   <i name="volume">     30.58874000 </i>
   <varray name="rec_basis" >
    <v>       0.00000000       0.20408163       0.39246468 </v>
    <v>       0.20408163       0.00000000       0.39246468 </v>
    <v>       0.20408163       0.20408163      -0.00000000 </v>
   </varray>
  </crystal>
  <varray name="positions" >
   <v>       0.25000000      -0.25000000      -0.50000000 </v>
   <v>       0.00000000       0.00000000       0.00000000 </v>
  </varray>
 </structure>
 <varray name="primitive_index" >
  <v type="int" >        1 </v>
  <v type="int" >        2 </v>
 </varray>
 <kpoints>
  <generation param="Monkhorst-Pack">
   <v type="int" name="divisions">       8        8        8 </v>
   <v name="usershift">      0.00000000       0.00000000       0.00000000 </v>
   <v name="genvec1">      0.12500000       0.00000000      -0.00000000 </v>
   <v name="genvec2">      0.00000000       0.12500000      -0.00000000 </v>
   <v name="genvec3">      0.00000000      -0.00000000       0.12500000 </v>
   <v name="shift">      0.50000000       0.50000000       0.50000000 </v>
  </generation>
  <varray name="kpointlist" >
   <v>       0.06250000       0.06250000       0.06250000 </v>
   <v>       0.18750000       0.06250000       0.06250000 </v>
   <v>       0.31250000       0.06250000       0.06250000 </v>
   <v>       0.43750000       0.06250000       0.06250000 </v>
   <v>      -0.06250000       0.06250000       0.06250000 </v>
   <v>       0.18750000       0.18750000       0.06250000 </v>
   <v>       0.31250000       0.18750000       0.06250000 </v>
   <v>       0.43750000       0.18750000       0.06250000 </v>
   <v>      -0.43750000       0.18750000       0.06250000 </v>
   <v>      -0.31250000       0.18750000       0.06250000 </v>
   <v>      -0.18750000       0.18750000       0.06250000 </v>
   <v>      -0.06250000       0.18750000       0.06250000 </v>
   <v>       0.31250000       0.31250000       0.06250000 </v>
   <v>       0.43750000       0.31250000       0.06250000 </v>
   <v>      -0.43750000       0.31250000       0.06250000 </v>
   <v>      -0.31250000       0.31250000       0.06250000 </v>
   <v>      -0.18750000       0.31250000       0.06250000 </v>
   <v>      -0.06250000       0.31250000       0.06250000 </v>
   <v>       0.43750000       0.43750000       0.06250000 </v>
   <v>      -0.43750000       0.43750000       0.06250000 </v>
   <v>      -0.31250000       0.43750000       0.06250000 </v>
   <v>      -0.18750000       0.43750000       0.06250000 </v>
   <v>      -0.06250000       0.43750000       0.06250000 </v>
   <v>      -0.43750000      -0.43750000       0.06250000 </v>
   <v>      -0.31250000      -0.43750000       0.06250000 </v>
   <v>      -0.18750000      -0.43750000       0.06250000 </v>
   <v>      -0.06250000      -0.43750000       0.06250000 </v>
   <v>      -0.31250000      -0.31250000       0.06250000 </v>
   <v>      -0.18750000      -0.31250000       0.06250000 </v>
   <v>      -0.06250000      -0.31250000       0.06250000 </v>
   <v>      -0.18750000      -0.18750000       0.06250000 </v>
   <v>      -0.06250000      -0.18750000       0.06250000 </v>
   <v>      -0.06250000      -0.06250000       0.06250000 </v>
   <v>       0.18750000       0.18750000       0.18750000 </v>
   <v>       0.31250000       0.18750000       0.18750000 </v>
   <v>      -0.18750000       0.18750000       0.18750000 </v>
   <v>       0.31250000       0.31250000       0.18750000 </v>
   <v>      -0.31250000       0.31250000       0.18750000 </v>
   <v>      -0.18750000       0.31250000       0.18750000 </v>
   <v>      -0.43750000       0.43750000       0.18750000 </v>
   <v>      -0.31250000       0.43750000       0.18750000 </v>
   <v>      -0.18750000       0.43750000       0.18750000 </v>
   <v>      -0.43750000      -0.43750000       0.18750000 </v>
   <v>      -0.31250000      -0.43750000       0.18750000 </v>
   <v>      -0.18750000      -0.43750000       0.18750000 </v>
   <v>      -0.31250000      -0.31250000       0.18750000 </v>
   <v>      -0.18750000      -0.31250000       0.18750000 </v>
   <v>      -0.18750000      -0.18750000       0.18750000 </v>
   <v>      -0.31250000       0.31250000       0.31250000 </v>
   <v>      -0.43750000       0.43750000       0.31250000 </v>
   <v>      -0.31250000       0.43750000       0.31250000 </v>
   <v>      -0.43750000      -0.43750000       0.31250000 </v>
   <v>      -0.31250000      -0.43750000       0.31250000 </v>
   <v>      -0.31250000      -0.31250000       0.31250000 </v>
   <v>      -0.43750000       0.43750000       0.43750000 </v>
   <v>      -0.43750000      -0.43750000       0.43750000 </v>
  </varray>
  <varray name="weights" >
   <v>       0.01562500 </v>
   <v>       0.03125000 </v>
   <v>       0.03125000 </v>
   <v>       0.01562500 </v>
   <v>       0.00781250 </v>
   <v>       0.01562500 </v>
   <v>       0.03125000 </v>
   <v>       0.03125000 </v>
   <v>       0.03125000 </v>
   <v>       0.01562500 </v>
   <v>       0.01562500 </v>
   <v>       0.01562500 </v>
   <v>       0.01562500 </v>
   <v>       0.03125000 </v>
   <v>       0.01562500 </v>
   <v>       0.01562500 </v>
   <v>       0.03125000 </v>
   <v>       0.01562500 </v>
   <v>       0.00781250 </v>
   <v>       0.01562500 </v>
   <v>       0.03125000 </v>
   <v>       0.03125000 </v>
   <v>       0.01562500 </v>
   <v>       0.01562500 </v>
   <v>       0.03125000 </v>
   <v>       0.03125000 </v>
   <v>       0.01562500 </v>
   <v>       0.01562500 </v>
   <v>       0.03125000 </v>
   <v>       0.01562500 </v>
   <v>       0.01562500 </v>
   <v>       0.01562500 </v>
   <v>       0.00390625 </v>
   <v>       0.01562500 </v>
   <v>       0.01562500 </v>
   <v>       0.00781250 </v>
   <v>       0.00781250 </v>
   <v>       0.01562500 </v>
   <v>       0.01562500 </v>
   <v>       0.01562500 </v>
   <v>       0.03125000 </v>
   <v>       0.01562500 </v>
   <v>       0.01562500 </v>
   <v>       0.03125000 </v>
   <v>       0.01562500 </v>
   <v>       0.01562500 </v>
   <v>       0.01562500 </v>
   <v>       0.00390625 </v>
   <v>       0.00781250 </v>
   <v>       0.01562500 </v>
   <v>       0.01562500 </v>
   <v>       0.01562500 </v>
   <v>       0.01562500 </v>
   <v>       0.00390625 </v>
   <v>       0.00781250 </v>
   <v>       0.00390625 </v>
  </varray>
 </kpoints>
 <parameters>
  <separator name="general" >
   <i type="string" name="SYSTEM">unknown system</i>
   <i type="logical" name="LCOMPAT"> F  </i>
  </separator>
  <separator name="electronic" >
   <i type="string" name="PREC">normal</i>
   <i name="ENMAX">    250.00000000</i>
   <i name="ENAUG">    322.06900000</i>
   <i name="EDIFF">      0.00040000</i>
   <i type="int" name="IALGO">    38</i>
   <i type="int" name="IWAVPR">    11</i>
   <i type="int" name="NBANDS">     8</i>
   <i name="NELECT">      8.00000000</i>
   <i type="int" name="TURBO">     0</i>
   <i type="int" name="IRESTART">     0</i>
   <i type="int" name="NREBOOT">     0</i>
   <i type="int" name="NMIN">     0</i>
   <i name="EREF">      0.00000000</i>
   <separator name="electronic smearing" >
    <i type="int" name="ISMEAR">     0</i>
    <i name="SIGMA">      0.20000000</i>
    <i name="KSPACING">      0.50000000</i>
    <i type="logical" name="KGAMMA"> T  </i>
   </separator>
   <separator name="electronic projectors" >
    <i type="logical" name="LREAL"> F  </i>
    <v name="ROPT">      0.00000000</v>
    <i type="int" name="LMAXPAW">  -100</i>
    <i type="int" name="LMAXMIX">     2</i>
    <i type="logical" name="NLSPLINE"> F  </i>
   </separator>
   <separator name="electronic startup" >
    <i type="int" name="ISTART">     1</i>
    <i type="int" name="ICHARG">     0</i>
    <i type="int" name="INIWAV">     1</i>
   </separator>
   <separator name="electronic spin" >
    <i type="int" name="ISPIN">     1</i>
    <i type="logical" name="LNONCOLLINEAR"> F  </i>
    <v name="MAGMOM">      1.00000000      1.00000000</v>
    <i name="NUPDOWN">     -1.00000000</i>
    <i type="logical" name="LSORBIT"> F  </i>
    <v name="SAXIS">      0.00000000      0.00000000      1.00000000</v>
    <i type="logical" name="LSPIRAL"> F  </i>
    <v name="QSPIRAL">      0.00000000      0.00000000      0.00000000</v>
    <i type="logical" name="LZEROZ"> F  </i>
   </separator>
   <separator name="electronic exchange-correlation" >
    <i type="logical" name="LASPH"> F  </i>
    <i type="logical" name="LMETAGGA"> F  </i>
   </separator>
   <separator name="electronic convergence" >
    <i type="int" name="NELM">    60</i>
    <i type="int" name="NELMDL">     0</i>
    <i type="int" name="NELMIN">     2</i>
    <i name="ENINI">    250.00000000</i>
    <separator name="electronic convergence detail" >
     <i type="logical" name="LDIAG"> T  </i>
     <i type="logical" name="LSUBROT"> F  </i>
     <i name="WEIMIN">      0.00100000</i>
     <i name="EBREAK">      0.00001250</i>
     <i name="DEPER">      0.30000000</i>
     <i type="int" name="NRMM">     4</i>
     <i name="TIME">      0.40000000</i>
    </separator>
   </separator>
   <separator name="electronic mixer" >
    <i name="AMIX">      0.40000000</i>
    <i name="BMIX">      1.00000000</i>
    <i name="AMIN">      0.10000000</i>
    <i name="AMIX_MAG">      1.60000000</i>
    <i name="BMIX_MAG">      1.00000000</i>
    <separator name="electronic mixer details" >
     <i type="int" name="IMIX">     4</i>
     <i type="logical" name="MIXFIRST"> F  </i>
     <i type="int" name="MAXMIX">   -45</i>
     <i name="WC">    100.00000000</i>
     <i type="int" name="INIMIX">     1</i>
     <i type="int" name="MIXPRE">     1</i>
     <i type="int" name="MREMOVE">     5</i>
    </separator>
   </separator>
   <separator name="electronic dipolcorrection" >
    <i type="logical" name="LDIPOL"> F  </i>
    <i type="logical" name="LMONO"> F  </i>
    <i type="int" name="IDIPOL">     0</i>
    <i name="EPSILON">      1.00000000</i>
    <v name="DIPOL">   -100.00000000   -100.00000000   -100.00000000</v>
    <i name="EFIELD">      0.00000000</i>
   </separator>
  </separator>
  <separator name="grids" >
   <i type="int" name="NGX">    14</i>
   <i type="int" name="NGY">    14</i>
   <i type="int" name="NGZ">    14</i>
   <i type="int" name="NGXF">    28</i>
   <i type="int" name="NGYF">    28</i>
   <i type="int" name="NGZF">    28</i>
   <i type="logical" name="ADDGRID"> F  </i>
  </separator>
  <separator name="ionic" >
   <i type="int" name="NSW">    15</i>
   <i type="int" name="IBRION">     2</i>
   <i type="int" name="MDALGO">     0</i>
   <i type="int" name="ISIF">     2</i>
   <i name="PSTRESS">      0.00000000</i>
   <i name="EDIFFG">     -0.01000000</i>
   <i type="int" name="NFREE">     1</i>
   <i name="POTIM">      0.50000000</i>
   <i name="SMASS">     -3.00000000</i>
   <i name="SCALEE">      1.00000000</i>
  </separator>
  <separator name="ionic md" >
   <i name="TEBEG">      0.00010000</i>
   <i name="TEEND">      0.00010000</i>
   <i type="int" name="NBLOCK">     1</i>
   <i type="int" name="KBLOCK">    15</i>
   <i type="int" name="NPACO">   256</i>
   <i name="APACO">     16.00000000</i>
  </separator>
  <separator name="symmetry" >
   <i type="int" name="ISYM">     2</i>
   <i name="SYMPREC">      0.00001000</i>
  </separator>
  <separator name="dos" >
   <i type="int" name="LORBIT">     0</i>
   <v name="RWIGS">     -1.00000000</v>
   <i type="int" name="NEDOS">   301</i>
   <i name="EMIN">     10.00000000</i>
   <i name="EMAX">    -10.00000000</i>
   <i name="EFERMI">      0.00000000</i>
  </separator>
  <separator name="writing" >
   <i type="int" name="NWRITE">     2</i>
   <i type="logical" name="LWAVE"> T  </i>
   <i type="logical" name="LDOWNSAMPLE"> F  </i>
   <i type="logical" name="LCHARG"> T  </i>
   <i type="logical" name="LPARD"> F  </i>
   <i type="logical" name="LVTOT"> F  </i>
   <i type="logical" name="LVHAR"> F  </i>
   <i type="logical" name="LELF"> F  </i>
   <i type="logical" name="LOPTICS"> F  </i>
   <v name="STM">      0.00000000      0.00000000      0.00000000      0.00000000      0.00000000      0.00000000      0.00000000</v>
  </separator>
  <separator name="performance" >
   <i type="int" name="NPAR">     8</i>
   <i type="int" name="NSIM">     4</i>
   <i type="int" name="NBLK">    -1</i>
   <i type="logical" name="LPLANE"> T  </i>
   <i type="logical" name="LSCALAPACK"> T  </i>
   <i type="logical" name="LSCAAWARE"> F  </i>
   <i type="logical" name="LSCALU"> F  </i>
   <i type="logical" name="LASYNC"> F  </i>
   <i type="logical" name="LORBITALREAL"> F  </i>
  </separator>
  <separator name="miscellaneous" >
   <i type="int" name="IDIOT">     3</i>
   <i type="int" name="ISPECIAL">     0</i>
   <i type="logical" name="LMUSIC"> F  </i>
   <v name="POMASS">     28.08500000</v>
   <v name="DARWINR">      0.00000000</v>
   <v name="DARWINV">      1.00000000</v>
   <i type="logical" name="LCORR"> T  </i>
  </separator>
  <i type="logical" name="GGA_COMPAT"> T  </i>
  <i type="logical" name="LBERRY"> F  </i>
  <i type="int" name="ICORELEVEL">     0</i>
  <i type="logical" name="LDAU"> F  </i>
  <i type="int" name="I_CONSTRAINED_M">     0</i>
  <separator name="electronic exchange-correlation" >
   <i type="string" name="GGA">--</i>
   <i type="int" name="VOSKOWN">     0</i>
   <i type="logical" name="LHFCALC"> F  </i>
   <i type="string" name="PRECFOCK"></i>
   <i type="logical" name="LSYMGRAD"> F  </i>
   <i type="logical" name="LHFONE"> F  </i>
   <i type="logical" name="LRHFCALC"> F  </i>
   <i type="logical" name="LTHOMAS"> F  </i>
   <i type="logical" name="LMODELHF"> F  </i>
   <i name="ENCUT4O">     -1.00000000</i>
   <i type="int" name="EXXOEP">     0</i>
   <i type="int" name="FOURORBIT">     0</i>
   <i name="AEXX">      0.00000000</i>
   <i name="HFALPHA">      0.00000000</i>
   <i name="MCALPHA">      0.00000000</i>
   <i name="ALDAX">      1.00000000</i>
   <i name="AGGAX">      1.00000000</i>
   <i name="ALDAC">      1.00000000</i>
   <i name="AGGAC">      1.00000000</i>
   <i type="int" name="NKREDX">     1</i>
   <i type="int" name="NKREDY">     1</i>
   <i type="int" name="NKREDZ">     1</i>
   <i type="logical" name="SHIFTRED"> F  </i>
   <i type="logical" name="ODDONLY"> F  </i>
   <i type="logical" name="EVENONLY"> F  </i>
   <i type="int" name="LMAXFOCK">     0</i>
   <i type="int" name="NMAXFOCKAE">     0</i>
   <i type="logical" name="LFOCKAEDFT"> F  </i>
   <i name="HFSCREEN">      0.00000000</i>
   <i name="HFSCREENC">      0.00000000</i>
   <i type="int" name="NBANDSGWLOW">     0</i>
  </separator>
  <separator name="vdW DFT" >
   <i type="logical" name="LUSE_VDW"> F  </i>
   <i name="Zab_VDW">     -0.84910000</i>
   <i name="PARAM1">      0.12340000</i>
   <i name="PARAM2">      1.00000000</i>
   <i name="PARAM3">      0.00000000</i>
  </separator>
  <separator name="model GW" >
   <i type="int" name="MODEL_GW">     0</i>
   <i name="MODEL_EPS0">      9.17662200</i>
   <i name="MODEL_ALPHA">      1.00000000</i>
  </separator>
  <separator name="linear response parameters" >
   <i type="logical" name="LEPSILON"> F  </i>
   <i type="logical" name="LRPA"> F  </i>
   <i type="logical" name="LNABLA"> F  </i>
   <i type="logical" name="LVEL"> F  </i>
   <i type="int" name="KINTER">     0</i>
   <i name="CSHIFT">      0.10000000</i>
   <i name="OMEGAMAX">     -1.00000000</i>
   <i name="DEG_THRESHOLD">      0.00200000</i>
   <i name="RTIME">     -0.10000000</i>
   <i name="WPLASMAI">      0.00000000</i>
   <v name="DFIELD">      0.00000000      0.00000000      0.00000000</v>
   <v name="WPLASMA">      0.00000000      0.00000000      0.00000000      0.00000000      0.00000000      0.00000000      0.00000000      0.00000000      0.00000000</v>
  </separator>
  <separator name="orbital magnetization" >
   <i type="logical" name="NUCIND"> F  </i>
   <v name="MAGPOS">      0.00000000      0.00000000      0.00000000</v>
   <i type="logical" name="LNICSALL"> T  </i>
   <i type="logical" name="ORBITALMAG"> F  </i>
   <i type="logical" name="LMAGBLOCH"> F  </i>
   <i type="logical" name="LCHIMAG"> F  </i>
   <i type="logical" name="LGAUGE"> T  </i>
   <i type="int" name="MAGATOM">     0</i>
   <v name="MAGDIPOL">      0.00000000      0.00000000      0.00000000</v>
   <v name="AVECCONST">      0.00000000      0.00000000      0.00000000</v>
  </separator>
  <separator name="response functions" >
   <i type="logical" name="LADDER"> F  </i>
   <i type="logical" name="LRPAFORCE"> F  </i>
   <i type="logical" name="LFXC"> F  </i>
   <i type="logical" name="LHARTREE"> T  </i>
   <i type="int" name="IBSE">     0</i>
   <v type="int" name="KPOINT">    -1     0     0     0</v>
   <i type="logical" name="LTCTE"> F  </i>
   <i type="logical" name="LTETE"> F  </i>
   <i type="logical" name="LTRIPLET"> F  </i>
   <i type="logical" name="LFXCEPS"> F  </i>
   <i type="logical" name="LFXHEG"> F  </i>
   <i type="int" name="NATURALO">     2</i>
   <i type="logical" name="L2ORDER"> F  </i>
   <i type="logical" name="LMP2LT"> F  </i>
   <i type="logical" name="LUSEW"> F  </i>
   <i name="ENCUTGW">     -2.00000000</i>
   <i name="ENCUTGWSOFT">     -2.00000000</i>
   <i name="ENCUTLF">     -1.00000000</i>
   <i type="int" name="LMAXMP2">    -1</i>
   <i name="SCISSOR">      0.00000000</i>
   <i type="int" name="NOMEGA">     0</i>
   <i type="int" name="NOMEGAR">     0</i>
   <i type="int" name="NBANDSGW">    -1</i>
   <i type="int" name="NBANDSO">    -1</i>
   <i type="int" name="NBANDSV">    -1</i>
   <i type="int" name="NELM">     1</i>
   <i type="int" name="NELMHF">     1</i>
   <i type="int" name="DIM">     3</i>
   <i type="int" name="ANTIRES">     0</i>
   <i name="OMEGAMAX">    -30.00000000</i>
   <i name="OMEGAMIN">    -30.00000000</i>
   <i name="OMEGATL">   -200.00000000</i>
   <i type="int" name="OMEGAGRID">   140</i>
   <i name="CSHIFT">     -0.10000000</i>
   <i type="logical" name="SELFENERGY"> F  </i>
   <i type="logical" name="LSPECTRAL"> F  </i>
   <i type="logical" name="LSPECTRALGW"> F  </i>
   <i type="logical" name="LSINGLES"> F  </i>
   <i type="logical" name="LFERMIGW"> F  </i>
   <i type="logical" name="ODDONLYGW"> F  </i>
   <i type="logical" name="EVENONLYGW"> F  </i>
   <i type="int" name="NKREDLFX">     1</i>
   <i type="int" name="NKREDLFY">     1</i>
   <i type="int" name="NKREDLFZ">     1</i>
   <i type="int" name="MAXMEM">  2800</i>
   <i type="int" name="TELESCOPE">     0</i>
   <i type="int" name="TAUPAR">     1</i>
   <i type="int" name="OMEGAPAR">    -1</i>
   <i name="LAMBDA">      1.00000000</i>
  </separator>
  <separator name="External order field" >
   <i name="OFIELD_KAPPA">      0.00000000</i>
   <v name="OFIELD_K">      0.00000000      0.00000000      0.00000000</v>
   <i name="OFIELD_Q6_NEAR">      0.00000000</i>
   <i name="OFIELD_Q6_FAR">      0.00000000</i>
   <i name="OFIELD_A">      0.00000000</i>
  </separator>
 </parameters>
 <atominfo>
  <atoms>       2 </atoms>
  <types>       1 </types>
  <array name="atoms" >
   <dimension dim="1">ion</dimension>
   <field type="string">element</field>
   <field type="int">atomtype</field>
   <set>
    <rc><c>Si</c><c>   1</c></rc>
    <rc><c>Si</c><c>   1</c></rc>
   </set>
  </array>
  <array name="atomtypes" >
   <dimension dim="1">type</dimension>
   <field type="int">atomspertype</field>
   <field type="string">element</field>
   <field>mass</field>
   <field>valence</field>
   <field type="string">pseudopotential</field>
   <set>
    <rc><c>   2</c><c>Si</c><c>     28.08500000</c><c>      4.00000000</c><c> PAW_PBE Si 05Jan2001                   </c></rc>
   </set>
  </array>
 </atominfo>
 <structure name="initialpos" >
  <crystal>
   <varray name="basis" >
    <v>      -2.45000000       2.45000000       1.27400000 </v>
    <v>       2.45000000      -2.45000000       1.27400000 </v>
    <v>       2.45000000       2.45000000      -1.27400000 </v>
   </varray>
   <i name="volume">     30.58874000 </i>
   <varray name="rec_basis" >
    <v>       0.00000000       0.20408163       0.39246468 </v>
    <v>       0.20408163       0.00000000       0.39246468 </v>
    <v>       0.20408163       0.20408163      -0.00000000 </v>
   </varray>
  </crystal>
  <varray name="positions" >
   <v>       0.25000000       0.75000000       0.50000000 </v>
   <v>       0.00000000       0.00000000       0.00000000 </v>
  </varray>
 </structure>
 <calculation>
  <scstep>
   <time name="dav">    0.66    0.67</time>
   <time name="total">    0.72    0.74</time>
   <energy>
    <i name="alphaZ">      4.40202223 </i>
    <i name="ewald">   -265.18101312 </i>
    <i name="hartreedc">     -2.48065540 </i>
    <i name="XCdc">    -17.57126239 </i>
    <i name="pawpsdc">     70.55392305 </i>
    <i name="pawaedc">    -35.46885392 </i>
    <i name="eentropy">     -0.02070620 </i>
    <i name="bandstr">     29.37800282 </i>
    <i name="atom">    206.12349923 </i>
    <i name="e_fr_energy">    -10.26504369 </i>
    <i name="e_wo_entrp">    -10.24433748 </i>
    <i name="e_0_energy">    -10.25469058 </i>
   </energy>
  </scstep>
  <scstep>
   <time name="dav">    0.57    0.57</time>
   <time name="total">    0.61    0.62</time>
   <energy>
    <i name="e_fr_energy">    -10.21326422 </i>
    <i name="e_wo_entrp">    -10.19199581 </i>
    <i name="e_0_energy">    -10.20263001 </i>
   </energy>
  </scstep>
  <scstep>
   <time name="dav">    0.63    0.63</time>
   <time name="total">    0.68    0.68</time>
   <energy>
    <i name="e_fr_energy">    -10.18739139 </i>
    <i name="e_wo_entrp">    -10.16546305 </i>
    <i name="e_0_energy">    -10.17642722 </i>
   </energy>
  </scstep>
  <scstep>
   <time name="dav">    0.49    0.49</time>
   <time name="total">    0.52    0.53</time>
   <energy>
    <i name="alphaZ">      4.40202223 </i>
    <i name="ewald">   -265.18101312 </i>
    <i name="hartreedc">     -2.48369833 </i>
    <i name="XCdc">    -17.57811035 </i>
    <i name="pawpsdc">     70.66495793 </i>
    <i name="pawaedc">    -35.58103766 </i>
    <i name="eentropy">     -0.02190705 </i>
    <i name="bandstr">     29.46772258 </i>
    <i name="atom">    206.12349923 </i>
    <i name="e_fr_energy">    -10.18756453 </i>
    <i name="e_wo_entrp">    -10.16565748 </i>
    <i name="e_0_energy">    -10.17661100 </i>
   </energy>
  </scstep>
  <structure>
   <crystal>
    <varray name="basis" >
     <v>      -2.45000000       2.45000000       1.27400000 </v>
     <v>       2.45000000      -2.45000000       1.27400000 </v>
     <v>       2.45000000       2.45000000      -1.27400000 </v>
    </varray>
    <i name="volume">     30.58874000 </i>
    <varray name="rec_basis" >
     <v>       0.00000000       0.20408163       0.39246468 </v>
     <v>       0.20408163       0.00000000       0.39246468 </v>
     <v>       0.20408163       0.20408163      -0.00000000 </v>
    </varray>
   </crystal>
   <varray name="positions" >
    <v>       0.25000000       0.75000000       0.50000000 </v>
    <v>       0.00000000       0.00000000       0.00000000 </v>
   </varray>
  </structure>
  <varray name="forces" >
   <v>       0.00000000       0.00000000      -0.00000000 </v>
   <v>      -0.00000000      -0.00000000       0.00000000 </v>
  </varray>
  <varray name="stress" >
   <v>     -32.89503496       0.00000000       0.00000000 </v>
   <v>      -0.00000000     -32.89503496       0.00000000 </v>
   <v>       0.00000000       0.00000000      68.81199782 </v>
  </varray>
  <energy>
   <i name="e_fr_energy">    -10.18756453 </i>
   <i name="e_wo_entrp">    -10.17661100 </i>
   <i name="e_0_energy">     -0.02190705 </i>
  </energy>
  <time name="totalsc">    3.41    3.88</time>
  <eigenvalues>
   <array>
    <dimension dim="1">band</dimension>
    <dimension dim="2">kpoint</dimension>
    <dimension dim="3">spin</dimension>
    <field>eigene</field>
    <field>occ</field>
    <set>
     <set comment="spin 1">
      <set comment="kpoint 1">
       <r>   -4.0824    1.0000 </r>
       <r>    4.3976    1.0000 </r>
       <r>    6.7662    1.0000 </r>
       <r>    8.0763    1.0000 </r>
       <r>   11.9837    0.0000 </r>
       <r>   14.5223    0.0000 </r>
       <r>   15.3420    0.0000 </r>
       <r>   16.5724    0.0000 </r>
      </set>
      <set comment="kpoint 2">
       <r>   -2.7668    1.0000 </r>
       <r>    4.2855    1.0000 </r>
       <r>    7.2071    1.0000 </r>
       <r>    9.5934    0.0001 </r>
       <r>   11.3859    0.0000 </r>
       <r>   11.8712    0.0000 </r>
       <r>   14.1455    0.0000 </r>
       <r>   14.7763    0.0000 </r>
      </set>
      <set comment="kpoint 3">
       <r>   -0.5997    1.0000 </r>
       <r>    4.9188    1.0000 </r>
       <r>    6.1840    1.0000 </r>
       <r>    7.6946    1.0000 </r>
       <r>    9.1896    0.1994 </r>
       <r>   12.3947    0.0000 </r>
       <r>   13.6362    0.0000 </r>
       <r>   13.9031    0.0000 </r>
      </set>
      <set comment="kpoint 4">
       <r>    2.1197    1.0000 </r>
       <r>    2.6726    1.0000 </r>
       <r>    6.3797    1.0000 </r>
       <r>    6.4198    1.0000 </r>
       <r>    9.0905    0.4432 </r>
       <r>   10.9755    0.0000 </r>
       <r>   13.5876    0.0000 </r>
       <r>   14.5164    0.0000 </r>
      </set>
      <set comment="kpoint 5">
       <r>   -4.5233    1.0000 </r>
       <r>    4.9158    1.0000 </r>
       <r>    5.9296    1.0000 </r>
       <r>    7.7241    1.0000 </r>
       <r>   11.0816    0.0000 </r>
       <r>   15.0580    0.0000 </r>
       <r>   17.4437    0.0000 </r>
       <r>   18.1120    0.0000 </r>
      </set>
      <set comment="kpoint 6">
       <r>   -0.7806    1.0000 </r>
       <r>    4.8308    1.0000 </r>
       <r>    7.1971    1.0000 </r>
       <r>    7.2659    1.0000 </r>
       <r>    9.9241    0.0000 </r>
       <r>   11.8890    0.0000 </r>
       <r>   13.6008    0.0000 </r>
       <r>   13.6214    0.0000 </r>
      </set>
      <set comment="kpoint 7">
       <r>    1.9844    1.0000 </r>
       <r>    3.4961    1.0000 </r>
       <r>    4.8343    1.0000 </r>
       <r>    6.1589    1.0000 </r>
       <r>   10.3777    0.0000 </r>
       <r>   12.0435    0.0000 </r>
       <r>   13.0010    0.0000 </r>
       <r>   14.9765    0.0000 </r>
      </set>
      <set comment="kpoint 8">
       <r>    0.3028    1.0000 </r>
       <r>    3.1165    1.0000 </r>
       <r>    5.6688    1.0000 </r>
       <r>    7.8513    1.0000 </r>
       <r>    9.4666    0.0025 </r>
       <r>   12.0376    0.0000 </r>
       <r>   14.0916    0.0000 </r>
       <r>   15.0706    0.0000 </r>
      </set>
      <set comment="kpoint 9">
       <r>   -2.0317    1.0000 </r>
       <r>    2.2661    1.0000 </r>
       <r>    7.8237    1.0000 </r>
       <r>    9.6216    0.0000 </r>
       <r>   11.0942    0.0000 </r>
       <r>   11.6523    0.0000 </r>
       <r>   13.0075    0.0000 </r>
       <r>   15.2657    0.0000 </r>
      </set>
      <set comment="kpoint 10">
       <r>   -3.5265    1.0000 </r>
       <r>    2.2280    1.0000 </r>
       <r>    7.2780    1.0000 </r>
       <r>    9.0139    0.6549 </r>
       <r>   12.5643    0.0000 </r>
       <r>   14.1943    0.0000 </r>
       <r>   14.4652    0.0000 </r>
       <r>   15.6062    0.0000 </r>
      </set>
      <set comment="kpoint 11">
       <r>   -4.1517    1.0000 </r>
       <r>    2.9753    1.0000 </r>
       <r>    6.0220    1.0000 </r>
       <r>    8.9711    0.7584 </r>
       <r>   12.8415    0.0000 </r>
       <r>   12.9998    0.0000 </r>
       <r>   15.8897    0.0000 </r>
       <r>   19.2203    0.0000 </r>
      </set>
      <set comment="kpoint 12">
       <r>   -3.8971    1.0000 </r>
       <r>    4.0798    1.0000 </r>
       <r>    5.4743    1.0000 </r>
       <r>    9.5920    0.0001 </r>
       <r>   12.7078    0.0000 </r>
       <r>   13.0190    0.0000 </r>
       <r>   14.8727    0.0000 </r>
       <r>   16.9843    0.0000 </r>
      </set>
      <set comment="kpoint 13">
       <r>    1.5390    1.0000 </r>
       <r>    1.5614    1.0000 </r>
       <r>    5.4979    1.0000 </r>
       <r>    7.8551    1.0000 </r>
       <r>   10.0671    0.0000 </r>
       <r>   11.0108    0.0000 </r>
       <r>   14.9693    0.0000 </r>
       <r>   16.0131    0.0000 </r>
      </set>
      <set comment="kpoint 14">
       <r>   -0.9375    1.0000 </r>
       <r>    0.5034    1.0000 </r>
       <r>    8.6894    0.9965 </r>
       <r>    9.3707    0.0168 </r>
       <r>   10.2721    0.0000 </r>
       <r>   11.9533    0.0000 </r>
       <r>   12.6545    0.0000 </r>
       <r>   13.9935    0.0000 </r>
      </set>
      <set comment="kpoint 15">
       <r>   -2.6048    1.0000 </r>
       <r>    0.2952    1.0000 </r>
       <r>    8.1278    1.0000 </r>
       <r>    9.9934    0.0000 </r>
       <r>   10.8167    0.0000 </r>
       <r>   12.6727    0.0000 </r>
       <r>   15.0864    0.0000 </r>
       <r>   15.0908    0.0000 </r>
      </set>
      <set comment="kpoint 16">
       <r>   -3.4112    1.0000 </r>
       <r>    0.9257    1.0000 </r>
       <r>    6.6969    1.0000 </r>
       <r>    9.9286    0.0000 </r>
       <r>   10.8278    0.0000 </r>
       <r>   14.0659    0.0000 </r>
       <r>   15.9725    0.0000 </r>
       <r>   18.8696    0.0000 </r>
      </set>
      <set comment="kpoint 17">
       <r>   -3.3425    1.0000 </r>
       <r>    2.3382    1.0000 </r>
       <r>    5.5568    1.0000 </r>
       <r>   10.7858    0.0000 </r>
       <r>   11.0175    0.0000 </r>
       <r>   14.0635    0.0000 </r>
       <r>   15.0618    0.0000 </r>
       <r>   16.7304    0.0000 </r>
      </set>
      <set comment="kpoint 18">
       <r>   -2.3997    1.0000 </r>
       <r>    4.0738    1.0000 </r>
       <r>    5.6129    1.0000 </r>
       <r>    9.4325    0.0052 </r>
       <r>   11.4489    0.0000 </r>
       <r>   12.7011    0.0000 </r>
       <r>   14.0460    0.0000 </r>
       <r>   14.5703    0.0000 </r>
      </set>
      <set comment="kpoint 19">
       <r>   -1.3256    1.0000 </r>
       <r>   -1.3255    1.0000 </r>
       <r>    9.3068    0.0472 </r>
       <r>    9.3068    0.0472 </r>
       <r>   11.2268    0.0000 </r>
       <r>   11.2268    0.0000 </r>
       <r>   14.9441    0.0000 </r>
       <r>   14.9441    0.0000 </r>
      </set>
      <set comment="kpoint 20">
       <r>   -2.3086    1.0000 </r>
       <r>   -0.8548    1.0000 </r>
       <r>    7.7354    1.0000 </r>
       <r>    9.1173    0.3696 </r>
       <r>   11.0468    0.0000 </r>
       <r>   12.4283    0.0000 </r>
       <r>   18.4648    0.0000 </r>
       <r>   18.6237    0.0000 </r>
      </set>
      <set comment="kpoint 21">
       <r>   -2.4238    1.0000 </r>
       <r>    0.4562    1.0000 </r>
       <r>    6.3739    1.0000 </r>
       <r>    9.1147    0.3768 </r>
       <r>   11.7667    0.0000 </r>
       <r>   13.6031    0.0000 </r>
       <r>   15.4209    0.0000 </r>
       <r>   16.2758    0.0000 </r>
      </set>
      <set comment="kpoint 22">
       <r>   -1.6689    1.0000 </r>
       <r>    2.5336    1.0000 </r>
       <r>    5.7884    1.0000 </r>
       <r>    8.8625    0.9291 </r>
       <r>    9.8115    0.0000 </r>
       <r>   13.3813    0.0000 </r>
       <r>   14.1516    0.0000 </r>
       <r>   16.2647    0.0000 </r>
      </set>
      <set comment="kpoint 23">
       <r>   -0.0599    1.0000 </r>
       <r>    4.7555    1.0000 </r>
       <r>    5.4842    1.0000 </r>
       <r>    6.4388    1.0000 </r>
       <r>    9.6844    0.0000 </r>
       <r>   12.2223    0.0000 </r>
       <r>   12.3276    0.0000 </r>
       <r>   15.6346    0.0000 </r>
      </set>
      <set comment="kpoint 24">
       <r>   -1.1517    1.0000 </r>
       <r>   -1.1492    1.0000 </r>
       <r>    7.5660    1.0000 </r>
       <r>    7.5850    1.0000 </r>
       <r>   12.3369    0.0000 </r>
       <r>   13.3364    0.0000 </r>
       <r>   14.7417    0.0000 </r>
       <r>   16.2122    0.0000 </r>
      </set>
      <set comment="kpoint 25">
       <r>   -0.5836    1.0000 </r>
       <r>    0.8371    1.0000 </r>
       <r>    6.7374    1.0000 </r>
       <r>    8.0090    1.0000 </r>
       <r>    8.7488    0.9885 </r>
       <r>   13.1783    0.0000 </r>
       <r>   15.1368    0.0000 </r>
       <r>   16.5688    0.0000 </r>
      </set>
      <set comment="kpoint 26">
       <r>    0.8303    1.0000 </r>
       <r>    3.5200    1.0000 </r>
       <r>    4.8572    1.0000 </r>
       <r>    6.7615    1.0000 </r>
       <r>    9.0187    0.6424 </r>
       <r>   11.1764    0.0000 </r>
       <r>   13.7893    0.0000 </r>
       <r>   16.8536    0.0000 </r>
      </set>
      <set comment="kpoint 27">
       <r>    1.6305    1.0000 </r>
       <r>    3.1542    1.0000 </r>
       <r>    6.5114    1.0000 </r>
       <r>    7.6658    1.0000 </r>
       <r>    8.0062    1.0000 </r>
       <r>   10.6332    0.0000 </r>
       <r>   12.1485    0.0000 </r>
       <r>   15.7745    0.0000 </r>
      </set>
      <set comment="kpoint 28">
       <r>    2.0228    1.0000 </r>
       <r>    2.0772    1.0000 </r>
       <r>    4.6607    1.0000 </r>
       <r>    7.6447    1.0000 </r>
       <r>    7.9720    1.0000 </r>
       <r>   10.8795    0.0000 </r>
       <r>   15.5940    0.0000 </r>
       <r>   16.1011    0.0000 </r>
      </set>
      <set comment="kpoint 29">
       <r>    1.2944    1.0000 </r>
       <r>    4.1586    1.0000 </r>
       <r>    5.4420    1.0000 </r>
       <r>    7.5873    1.0000 </r>
       <r>    8.8010    0.9715 </r>
       <r>   10.6179    0.0000 </r>
       <r>   12.0619    0.0000 </r>
       <r>   14.3869    0.0000 </r>
      </set>
      <set comment="kpoint 30">
       <r>   -1.1450    1.0000 </r>
       <r>    6.4885    1.0000 </r>
       <r>    7.0505    1.0000 </r>
       <r>    7.7158    1.0000 </r>
       <r>    9.0999    0.4169 </r>
       <r>   11.6038    0.0000 </r>
       <r>   12.2459    0.0000 </r>
       <r>   13.6425    0.0000 </r>
      </set>
      <set comment="kpoint 31">
       <r>   -1.3274    1.0000 </r>
       <r>    6.8515    1.0000 </r>
       <r>    7.8393    1.0000 </r>
       <r>    7.8904    1.0000 </r>
       <r>    9.2337    0.1240 </r>
       <r>   11.0166    0.0000 </r>
       <r>   12.1511    0.0000 </r>
       <r>   12.3697    0.0000 </r>
      </set>
      <set comment="kpoint 32">
       <r>   -3.1358    1.0000 </r>
       <r>    6.1790    1.0000 </r>
       <r>    7.1147    1.0000 </r>
       <r>    8.7604    0.9858 </r>
       <r>   11.8122    0.0000 </r>
       <r>   12.3728    0.0000 </r>
       <r>   12.4015    0.0000 </r>
       <r>   14.8186    0.0000 </r>
      </set>
      <set comment="kpoint 33">
       <r>   -4.2682    1.0000 </r>
       <r>    6.5134    1.0000 </r>
       <r>    6.5952    1.0000 </r>
       <r>    6.5952    1.0000 </r>
       <r>   10.8849    0.0000 </r>
       <r>   15.7616    0.0000 </r>
       <r>   15.8315    0.0000 </r>
       <r>   17.2094    0.0000 </r>
      </set>
      <set comment="kpoint 34">
       <r>    0.1253    1.0000 </r>
       <r>    2.9631    1.0000 </r>
       <r>    6.7735    1.0000 </r>
       <r>    6.8111    1.0000 </r>
       <r>   10.8551    0.0000 </r>
       <r>   12.6517    0.0000 </r>
       <r>   13.8749    0.0000 </r>
       <r>   14.4611    0.0000 </r>
      </set>
      <set comment="kpoint 35">
       <r>    2.8328    1.0000 </r>
       <r>    3.3199    1.0000 </r>
       <r>    4.3571    1.0000 </r>
       <r>    4.7313    1.0000 </r>
       <r>   12.0048    0.0000 </r>
       <r>   13.8348    0.0000 </r>
       <r>   14.0952    0.0000 </r>
       <r>   14.4062    0.0000 </r>
      </set>
      <set comment="kpoint 36">
       <r>   -3.7818    1.0000 </r>
       <r>    2.7555    1.0000 </r>
       <r>    4.3484    1.0000 </r>
       <r>   10.6530    0.0000 </r>
       <r>   11.0836    0.0000 </r>
       <r>   14.0892    0.0000 </r>
       <r>   17.7225    0.0000 </r>
       <r>   18.7515    0.0000 </r>
      </set>
      <set comment="kpoint 37">
       <r>    1.3797    1.0000 </r>
       <r>    1.3797    1.0000 </r>
       <r>    6.6406    1.0000 </r>
       <r>    6.6406    1.0000 </r>
       <r>   12.0626    0.0000 </r>
       <r>   12.0626    0.0000 </r>
       <r>   13.8797    0.0000 </r>
       <r>   13.8797    0.0000 </r>
      </set>
      <set comment="kpoint 38">
       <r>   -3.0459    1.0000 </r>
       <r>    1.1942    1.0000 </r>
       <r>    4.5239    1.0000 </r>
       <r>    8.6185    0.9993 </r>
       <r>   12.5005    0.0000 </r>
       <r>   16.4052    0.0000 </r>
       <r>   16.5635    0.0000 </r>
       <r>   18.3775    0.0000 </r>
      </set>
      <set comment="kpoint 39">
       <r>   -2.7929    1.0000 </r>
       <r>    2.2690    1.0000 </r>
       <r>    3.9519    1.0000 </r>
       <r>    8.8379    0.9498 </r>
       <r>   12.3231    0.0000 </r>
       <r>   14.3314    0.0000 </r>
       <r>   16.2797    0.0000 </r>
       <r>   17.7708    0.0000 </r>
      </set>
      <set comment="kpoint 40">
       <r>   -1.9521    1.0000 </r>
       <r>   -0.5188    1.0000 </r>
       <r>    5.5059    1.0000 </r>
       <r>    6.8897    1.0000 </r>
       <r>   13.6824    0.0000 </r>
       <r>   14.9853    0.0000 </r>
       <r>   17.8963    0.0000 </r>
       <r>   18.0139    0.0000 </r>
      </set>
      <set comment="kpoint 41">
       <r>   -1.8846    1.0000 </r>
       <r>    0.8967    1.0000 </r>
       <r>    4.2657    1.0000 </r>
       <r>    6.9605    1.0000 </r>
       <r>   12.3416    0.0000 </r>
       <r>   15.3518    0.0000 </r>
       <r>   17.7386    0.0000 </r>
       <r>   17.9813    0.0000 </r>
      </set>
      <set comment="kpoint 42">
       <r>   -0.9490    1.0000 </r>
       <r>    2.6320    1.0000 </r>
       <r>    4.3433    1.0000 </r>
       <r>    7.7189    1.0000 </r>
       <r>    8.4096    1.0000 </r>
       <r>   14.6301    0.0000 </r>
       <r>   16.2368    0.0000 </r>
       <r>   16.5927    0.0000 </r>
      </set>
      <set comment="kpoint 43">
       <r>   -0.6374    1.0000 </r>
       <r>   -0.6321    1.0000 </r>
       <r>    5.4115    1.0000 </r>
       <r>    5.4126    1.0000 </r>
       <r>   12.2550    0.0000 </r>
       <r>   16.2227    0.0000 </r>
       <r>   16.9971    0.0000 </r>
       <r>   17.7928    0.0000 </r>
      </set>
      <set comment="kpoint 44">
       <r>    0.1110    1.0000 </r>
       <r>    1.4533    1.0000 </r>
       <r>    4.8088    1.0000 </r>
       <r>    6.1003    1.0000 </r>
       <r>    8.0199    1.0000 </r>
       <r>   14.9115    0.0000 </r>
       <r>   17.4259    0.0000 </r>
       <r>   18.1183    0.0000 </r>
      </set>
      <set comment="kpoint 45">
       <r>    1.6892    1.0000 </r>
       <r>    3.6844    1.0000 </r>
       <r>    4.4797    1.0000 </r>
       <r>    5.5154    1.0000 </r>
       <r>    7.5597    1.0000 </r>
       <r>   12.3269    0.0000 </r>
       <r>   13.7769    0.0000 </r>
       <r>   17.1327    0.0000 </r>
      </set>
      <set comment="kpoint 46">
       <r>    2.7395    1.0000 </r>
       <r>    2.8729    1.0000 </r>
       <r>    4.2106    1.0000 </r>
       <r>    6.1241    1.0000 </r>
       <r>    6.1926    1.0000 </r>
       <r>   12.6020    0.0000 </r>
       <r>   15.0706    0.0000 </r>
       <r>   15.8059    0.0000 </r>
      </set>
      <set comment="kpoint 47">
       <r>    0.9421    1.0000 </r>
       <r>    5.1059    1.0000 </r>
       <r>    5.9057    1.0000 </r>
       <r>    7.3234    1.0000 </r>
       <r>    7.9747    1.0000 </r>
       <r>   10.8642    0.0000 </r>
       <r>   11.9107    0.0000 </r>
       <r>   13.3163    0.0000 </r>
      </set>
      <set comment="kpoint 48">
       <r>   -1.5104    1.0000 </r>
       <r>    8.1099    1.0000 </r>
       <r>    8.4260    1.0000 </r>
       <r>    8.4261    1.0000 </r>
       <r>    8.7238    0.9929 </r>
       <r>    9.9907    0.0000 </r>
       <r>   11.8312    0.0000 </r>
       <r>   11.8312    0.0000 </r>
      </set>
      <set comment="kpoint 49">
       <r>   -2.3209    1.0000 </r>
       <r>    1.2881    1.0000 </r>
       <r>    3.0471    1.0000 </r>
       <r>    6.5678    1.0000 </r>
       <r>   14.6690    0.0000 </r>
       <r>   16.8810    0.0000 </r>
       <r>   18.0421    0.0000 </r>
       <r>   18.2055    0.0000 </r>
      </set>
      <set comment="kpoint 50">
       <r>   -1.2523    1.0000 </r>
       <r>    0.1002    1.0000 </r>
       <r>    3.5168    1.0000 </r>
       <r>    4.8394    1.0000 </r>
       <r>   15.8229    0.0000 </r>
       <r>   16.4265    0.0000 </r>
       <r>   18.2059    0.0000 </r>
       <r>   18.8927    0.0000 </r>
      </set>
      <set comment="kpoint 51">
       <r>   -1.0019    1.0000 </r>
       <r>    1.1660    1.0000 </r>
       <r>    2.9518    1.0000 </r>
       <r>    5.0768    1.0000 </r>
       <r>   12.0165    0.0000 </r>
       <r>   17.6943    0.0000 </r>
       <r>   19.1145    0.0000 </r>
       <r>   19.6417    0.0000 </r>
      </set>
      <set comment="kpoint 52">
       <r>    0.1611    1.0000 </r>
       <r>    0.1698    1.0000 </r>
       <r>    3.5855    1.0000 </r>
       <r>    3.5875    1.0000 </r>
       <r>   11.8798    0.0000 </r>
       <r>   18.9694    0.0000 </r>
       <r>   19.3737    0.0000 </r>
       <r>   21.4958    0.0000 </r>
      </set>
      <set comment="kpoint 53">
       <r>    1.0893    1.0000 </r>
       <r>    1.9017    1.0000 </r>
       <r>    3.6751    1.0000 </r>
       <r>    4.4722    1.0000 </r>
       <r>    7.6765    1.0000 </r>
       <r>   16.4702    0.0000 </r>
       <r>   17.8528    0.0000 </r>
       <r>   18.7631    0.0000 </r>
      </set>
      <set comment="kpoint 54">
       <r>    3.1875    1.0000 </r>
       <r>    3.5066    1.0000 </r>
       <r>    4.2541    1.0000 </r>
       <r>    5.1930    1.0000 </r>
       <r>    5.1930    1.0000 </r>
       <r>   14.1927    0.0000 </r>
       <r>   14.8924    0.0000 </r>
       <r>   14.8925    0.0000 </r>
      </set>
      <set comment="kpoint 55">
       <r>   -0.2680    1.0000 </r>
       <r>    0.5469    1.0000 </r>
       <r>    2.3678    1.0000 </r>
       <r>    3.1729    1.0000 </r>
       <r>   16.2610    0.0000 </r>
       <r>   16.3620    0.0000 </r>
       <r>   19.9287    0.0000 </r>
       <r>   20.7224    0.0000 </r>
      </set>
      <set comment="kpoint 56">
       <r>    0.7897    1.0000 </r>
       <r>    0.8021    1.0000 </r>
       <r>    2.6108    1.0000 </r>
       <r>    2.6108    1.0000 </r>
       <r>   11.7400    0.0000 </r>
       <r>   20.1144    0.0000 </r>
       <r>   20.8764    0.0000 </r>
       <r>   20.8764    0.0000 </r>
      </set>
     </set>
    </set>
   </array>
  </eigenvalues>
  <separator name="orbital magnetization" >
   <v name="MAGDIPOLOUT">      0.00000000      0.00000000      0.00000000</v>
  </separator>
  <dos>
   <i name="efermi">      9.07026553 </i>
   <total>
    <array>
     <dimension dim="1">gridpoints</dimension>
     <dimension dim="2">spin</dimension>
     <field>energy</field>
     <field>total</field>
     <field>integrated</field>
     <set>
      <set comment="spin 1">
       <r>    -6.5233     0.0000     0.0000 </r>
       <r>    -6.4232     0.0000     0.0000 </r>
       <r>    -6.3232     0.0000     0.0000 </r>
       <r>    -6.2231     0.0000     0.0000 </r>
       <r>    -6.1231     0.0000     0.0000 </r>
       <r>    -6.0230     0.0000     0.0000 </r>
       <r>    -5.9229     0.0000     0.0000 </r>
       <r>    -5.8229     0.0000     0.0000 </r>
       <r>    -5.7228     0.0000     0.0000 </r>
       <r>    -5.6227     0.0000     0.0000 </r>
       <r>    -5.5227     0.0000     0.0000 </r>
       <r>    -5.4226     0.0000     0.0000 </r>
       <r>    -5.3225     0.0000     0.0000 </r>
       <r>    -5.2225     0.0000     0.0000 </r>
       <r>    -5.1224     0.0000     0.0000 </r>
       <r>    -5.0224     0.0000     0.0000 </r>
       <r>    -4.9223     0.0003     0.0000 </r>
       <r>    -4.8222     0.0023     0.0003 </r>
       <r>    -4.7222     0.0098     0.0013 </r>
       <r>    -4.6221     0.0260     0.0039 </r>
       <r>    -4.5220     0.0447     0.0083 </r>
       <r>    -4.4220     0.0582     0.0141 </r>
       <r>    -4.3219     0.0805     0.0222 </r>
       <r>    -4.2218     0.1317     0.0354 </r>
       <r>    -4.1218     0.1915     0.0545 </r>
       <r>    -4.0217     0.2164     0.0762 </r>
       <r>    -3.9217     0.2013     0.0963 </r>
       <r>    -3.8216     0.1697     0.1133 </r>
       <r>    -3.7215     0.1399     0.1273 </r>
       <r>    -3.6215     0.1417     0.1415 </r>
       <r>    -3.5214     0.2010     0.1616 </r>
       <r>    -3.4213     0.2877     0.1904 </r>
       <r>    -3.3213     0.3314     0.2236 </r>
       <r>    -3.2212     0.3070     0.2543 </r>
       <r>    -3.1211     0.2606     0.2804 </r>
       <r>    -3.0211     0.2313     0.3035 </r>
       <r>    -2.9210     0.2352     0.3270 </r>
       <r>    -2.8210     0.2839     0.3554 </r>
       <r>    -2.7209     0.3338     0.3888 </r>
       <r>    -2.6208     0.3408     0.4229 </r>
       <r>    -2.5208     0.3516     0.4581 </r>
       <r>    -2.4207     0.3977     0.4979 </r>
       <r>    -2.3206     0.4067     0.5386 </r>
       <r>    -2.2206     0.3432     0.5730 </r>
       <r>    -2.1205     0.3033     0.6033 </r>
       <r>    -2.0204     0.3542     0.6388 </r>
       <r>    -1.9204     0.4179     0.6806 </r>
       <r>    -1.8203     0.4057     0.7212 </r>
       <r>    -1.7202     0.3400     0.7552 </r>
       <r>    -1.6202     0.2740     0.7826 </r>
       <r>    -1.5201     0.2292     0.8055 </r>
       <r>    -1.4201     0.2464     0.8302 </r>
       <r>    -1.3200     0.3476     0.8650 </r>
       <r>    -1.2199     0.4734     0.9123 </r>
       <r>    -1.1199     0.5558     0.9680 </r>
       <r>    -1.0198     0.5929     1.0273 </r>
       <r>    -0.9197     0.6024     1.0876 </r>
       <r>    -0.8197     0.5915     1.1468 </r>
       <r>    -0.7196     0.6113     1.2079 </r>
       <r>    -0.6195     0.6705     1.2750 </r>
       <r>    -0.5195     0.6354     1.3386 </r>
       <r>    -0.4194     0.4427     1.3829 </r>
       <r>    -0.3194     0.2342     1.4063 </r>
       <r>    -0.2193     0.1413     1.4205 </r>
       <r>    -0.1192     0.1746     1.4380 </r>
       <r>    -0.0192     0.3179     1.4698 </r>
       <r>     0.0809     0.5312     1.5229 </r>
       <r>     0.1810     0.6973     1.5927 </r>
       <r>     0.2810     0.7280     1.6655 </r>
       <r>     0.3811     0.6729     1.7329 </r>
       <r>     0.4812     0.5980     1.7927 </r>
       <r>     0.5812     0.5048     1.8432 </r>
       <r>     0.6813     0.4598     1.8892 </r>
       <r>     0.7813     0.5674     1.9460 </r>
       <r>     0.8814     0.7310     2.0192 </r>
       <r>     0.9815     0.7441     2.0936 </r>
       <r>     1.0815     0.6267     2.1563 </r>
       <r>     1.1816     0.5555     2.2119 </r>
       <r>     1.2817     0.5742     2.2694 </r>
       <r>     1.3817     0.6079     2.3302 </r>
       <r>     1.4818     0.6069     2.3909 </r>
       <r>     1.5819     0.5552     2.4465 </r>
       <r>     1.6819     0.4544     2.4919 </r>
       <r>     1.7820     0.3618     2.5281 </r>
       <r>     1.8820     0.3671     2.5649 </r>
       <r>     1.9821     0.4749     2.6124 </r>
       <r>     2.0822     0.5938     2.6718 </r>
       <r>     2.1822     0.6733     2.7392 </r>
       <r>     2.2823     0.7099     2.8102 </r>
       <r>     2.3824     0.6713     2.8774 </r>
       <r>     2.4824     0.5860     2.9360 </r>
       <r>     2.5825     0.5463     2.9907 </r>
       <r>     2.6826     0.5614     3.0469 </r>
       <r>     2.7826     0.5854     3.1055 </r>
       <r>     2.8827     0.6134     3.1668 </r>
       <r>     2.9827     0.6428     3.2312 </r>
       <r>     3.0828     0.6375     3.2950 </r>
       <r>     3.1829     0.5704     3.3520 </r>
       <r>     3.2829     0.4848     3.4005 </r>
       <r>     3.3830     0.4967     3.4502 </r>
       <r>     3.4831     0.6401     3.5143 </r>
       <r>     3.5831     0.7498     3.5893 </r>
       <r>     3.6832     0.6607     3.6554 </r>
       <r>     3.7833     0.4436     3.6998 </r>
       <r>     3.8833     0.2992     3.7298 </r>
       <r>     3.9834     0.3355     3.7633 </r>
       <r>     4.0834     0.5253     3.8159 </r>
       <r>     4.1835     0.7727     3.8932 </r>
       <r>     4.2836     0.9533     3.9886 </r>
       <r>     4.3836     0.9644     4.0851 </r>
       <r>     4.4837     0.8239     4.1675 </r>
       <r>     4.5838     0.6914     4.2367 </r>
       <r>     4.6838     0.7450     4.3113 </r>
       <r>     4.7839     0.9729     4.4086 </r>
       <r>     4.8840     1.1077     4.5195 </r>
       <r>     4.9840     0.9509     4.6146 </r>
       <r>     5.0841     0.6430     4.6790 </r>
       <r>     5.1841     0.4281     4.7218 </r>
       <r>     5.2842     0.4290     4.7647 </r>
       <r>     5.3843     0.6651     4.8313 </r>
       <r>     5.4843     0.9737     4.9287 </r>
       <r>     5.5844     1.0785     5.0366 </r>
       <r>     5.6845     0.9208     5.1288 </r>
       <r>     5.7845     0.6917     5.1980 </r>
       <r>     5.8846     0.5659     5.2546 </r>
       <r>     5.9847     0.6104     5.3157 </r>
       <r>     6.0847     0.7954     5.3953 </r>
       <r>     6.1848     0.9589     5.4912 </r>
       <r>     6.2848     0.9677     5.5881 </r>
       <r>     6.3849     0.8990     5.6780 </r>
       <r>     6.4850     0.8605     5.7641 </r>
       <r>     6.5850     0.8726     5.8515 </r>
       <r>     6.6851     0.9568     5.9472 </r>
       <r>     6.7852     1.0451     6.0518 </r>
       <r>     6.8852     0.9950     6.1513 </r>
       <r>     6.9853     0.8282     6.2342 </r>
       <r>     7.0854     0.7053     6.3048 </r>
       <r>     7.1854     0.6823     6.3731 </r>
       <r>     7.2855     0.6617     6.4393 </r>
       <r>     7.3855     0.6046     6.4998 </r>
       <r>     7.4856     0.6672     6.5665 </r>
       <r>     7.5857     0.9595     6.6625 </r>
       <r>     7.6857     1.3135     6.7940 </r>
       <r>     7.7858     1.4996     6.9440 </r>
       <r>     7.8859     1.4898     7.0931 </r>
       <r>     7.9859     1.3489     7.2281 </r>
       <r>     8.0860     1.0720     7.3353 </r>
       <r>     8.1861     0.6921     7.4046 </r>
       <r>     8.2861     0.3732     7.4419 </r>
       <r>     8.3862     0.2377     7.4657 </r>
       <r>     8.4862     0.2631     7.4921 </r>
       <r>     8.5863     0.4170     7.5338 </r>
       <r>     8.6864     0.6822     7.6020 </r>
       <r>     8.7864     0.9368     7.6958 </r>
       <r>     8.8865     1.0512     7.8010 </r>
       <r>     8.9866     1.0745     7.9085 </r>
       <r>     9.0866     1.0933     8.0179 </r>
       <r>     9.1867     1.0557     8.1235 </r>
       <r>     9.2868     0.9374     8.2173 </r>
       <r>     9.3868     0.8404     8.3014 </r>
       <r>     9.4869     0.8240     8.3839 </r>
       <r>     9.5869     0.8285     8.4668 </r>
       <r>     9.6870     0.7727     8.5441 </r>
       <r>     9.7871     0.6645     8.6106 </r>
       <r>     9.8871     0.5765     8.6683 </r>
       <r>     9.9872     0.5123     8.7196 </r>
       <r>    10.0873     0.4331     8.7629 </r>
       <r>    10.1873     0.3721     8.8001 </r>
       <r>    10.2874     0.3718     8.8373 </r>
       <r>    10.3875     0.3895     8.8763 </r>
       <r>    10.4875     0.3983     8.9162 </r>
       <r>    10.5876     0.4622     8.9624 </r>
       <r>    10.6877     0.6194     9.0244 </r>
       <r>    10.7877     0.8300     9.1074 </r>
       <r>    10.8878     1.0298     9.2105 </r>
       <r>    10.9878     1.1566     9.3262 </r>
       <r>    11.0879     1.1451     9.4408 </r>
       <r>    11.1880     0.9643     9.5373 </r>
       <r>    11.2880     0.7085     9.6082 </r>
       <r>    11.3881     0.5246     9.6607 </r>
       <r>    11.4882     0.4586     9.7066 </r>
       <r>    11.5882     0.5011     9.7567 </r>
       <r>    11.6883     0.6652     9.8233 </r>
       <r>    11.7884     0.9518     9.9185 </r>
       <r>    11.8884     1.3027    10.0489 </r>
       <r>    11.9885     1.5759    10.2066 </r>
       <r>    12.0885     1.6359    10.3703 </r>
       <r>    12.1886     1.5512    10.5255 </r>
       <r>    12.2887     1.5184    10.6774 </r>
       <r>    12.3887     1.5074    10.8283 </r>
       <r>    12.4888     1.3565    10.9640 </r>
       <r>    12.5889     1.1321    11.0773 </r>
       <r>    12.6889     0.9503    11.1724 </r>
       <r>    12.7890     0.7861    11.2510 </r>
       <r>    12.8891     0.6816    11.3192 </r>
       <r>    12.9891     0.6925    11.3885 </r>
       <r>    13.0892     0.7051    11.4591 </r>
       <r>    13.1892     0.6389    11.5230 </r>
       <r>    13.2893     0.5761    11.5807 </r>
       <r>    13.3894     0.5863    11.6393 </r>
       <r>    13.4894     0.6936    11.7087 </r>
       <r>    13.5895     0.9018    11.7990 </r>
       <r>    13.6896     1.0954    11.9086 </r>
       <r>    13.7896     1.1748    12.0261 </r>
       <r>    13.8897     1.2241    12.1486 </r>
       <r>    13.9898     1.3400    12.2827 </r>
       <r>    14.0898     1.4393    12.4267 </r>
       <r>    14.1899     1.3447    12.5613 </r>
       <r>    14.2899     1.0921    12.6706 </r>
       <r>    14.3900     0.9138    12.7620 </r>
       <r>    14.4901     0.8616    12.8482 </r>
       <r>    14.5901     0.8209    12.9304 </r>
       <r>    14.6902     0.8009    13.0105 </r>
       <r>    14.7903     0.9113    13.1017 </r>
       <r>    14.8903     1.1671    13.2185 </r>
       <r>    14.9904     1.4296    13.3615 </r>
       <r>    15.0905     1.4928    13.5109 </r>
       <r>    15.1905     1.2957    13.6406 </r>
       <r>    15.2906     1.0139    13.7420 </r>
       <r>    15.3906     0.8041    13.8225 </r>
       <r>    15.4907     0.6561    13.8881 </r>
       <r>    15.5908     0.5606    13.9442 </r>
       <r>    15.6908     0.5400    13.9983 </r>
       <r>    15.7909     0.5645    14.0547 </r>
       <r>    15.8910     0.5763    14.1124 </r>
       <r>    15.9910     0.5712    14.1696 </r>
       <r>    16.0911     0.6326    14.2329 </r>
       <r>    16.1912     0.8134    14.3143 </r>
       <r>    16.2912     0.9922    14.4136 </r>
       <r>    16.3913     1.0158    14.5152 </r>
       <r>    16.4913     0.9302    14.6083 </r>
       <r>    16.5914     0.8360    14.6919 </r>
       <r>    16.6915     0.7299    14.7650 </r>
       <r>    16.7915     0.6202    14.8270 </r>
       <r>    16.8916     0.5387    14.8809 </r>
       <r>    16.9917     0.4631    14.9273 </r>
       <r>    17.0917     0.3662    14.9639 </r>
       <r>    17.1918     0.2705    14.9910 </r>
       <r>    17.2919     0.2253    15.0135 </r>
       <r>    17.3919     0.2453    15.0381 </r>
       <r>    17.4920     0.2902    15.0671 </r>
       <r>    17.5920     0.3588    15.1030 </r>
       <r>    17.6921     0.5017    15.1532 </r>
       <r>    17.7922     0.6687    15.2201 </r>
       <r>    17.8922     0.7519    15.2954 </r>
       <r>    17.9923     0.7502    15.3704 </r>
       <r>    18.0924     0.6996    15.4404 </r>
       <r>    18.1924     0.5895    15.4994 </r>
       <r>    18.2925     0.4420    15.5437 </r>
       <r>    18.3926     0.3259    15.5763 </r>
       <r>    18.4926     0.2701    15.6033 </r>
       <r>    18.5927     0.2594    15.6292 </r>
       <r>    18.6927     0.2887    15.6581 </r>
       <r>    18.7928     0.3450    15.6927 </r>
       <r>    18.8929     0.3827    15.7310 </r>
       <r>    18.9929     0.3649    15.7675 </r>
       <r>    19.0930     0.3115    15.7986 </r>
       <r>    19.1931     0.2632    15.8250 </r>
       <r>    19.2931     0.2250    15.8475 </r>
       <r>    19.3932     0.1835    15.8659 </r>
       <r>    19.4933     0.1438    15.8802 </r>
       <r>    19.5933     0.1211    15.8924 </r>
       <r>    19.6934     0.1089    15.9033 </r>
       <r>    19.7934     0.0905    15.9123 </r>
       <r>    19.8935     0.0730    15.9196 </r>
       <r>    19.9936     0.0634    15.9260 </r>
       <r>    20.0936     0.0524    15.9312 </r>
       <r>    20.1937     0.0356    15.9348 </r>
       <r>    20.2938     0.0186    15.9366 </r>
       <r>    20.3938     0.0082    15.9375 </r>
       <r>    20.4939     0.0089    15.9384 </r>
       <r>    20.5940     0.0234    15.9407 </r>
       <r>    20.6940     0.0491    15.9456 </r>
       <r>    20.7941     0.0711    15.9527 </r>
       <r>    20.8941     0.0724    15.9600 </r>
       <r>    20.9942     0.0520    15.9652 </r>
       <r>    21.0943     0.0262    15.9678 </r>
       <r>    21.1943     0.0128    15.9691 </r>
       <r>    21.2944     0.0207    15.9711 </r>
       <r>    21.3945     0.0501    15.9761 </r>
       <r>    21.4945     0.0811    15.9843 </r>
       <r>    21.5946     0.0816    15.9924 </r>
       <r>    21.6947     0.0508    15.9975 </r>
       <r>    21.7947     0.0195    15.9995 </r>
       <r>    21.8948     0.0046    15.9999 </r>
       <r>    21.9948     0.0007    16.0000 </r>
       <r>    22.0949     0.0001    16.0000 </r>
       <r>    22.1950     0.0000    16.0000 </r>
       <r>    22.2950     0.0000    16.0000 </r>
       <r>    22.3951     0.0000    16.0000 </r>
       <r>    22.4952     0.0000    16.0000 </r>
       <r>    22.5952     0.0000    16.0000 </r>
       <r>    22.6953     0.0000    16.0000 </r>
       <r>    22.7954     0.0000    16.0000 </r>
       <r>    22.8954     0.0000    16.0000 </r>
       <r>    22.9955     0.0000    16.0000 </r>
       <r>    23.0956     0.0000    16.0000 </r>
       <r>    23.1956     0.0000    16.0000 </r>
       <r>    23.2957     0.0000    16.0000 </r>
       <r>    23.3957     0.0000    16.0000 </r>
       <r>    23.4958     0.0000    16.0000 </r>
      </set>
     </set>
    </array>
   </total>
  </dos>
 </calculation>
 <structure name="finalpos" >
  <crystal>
   <varray name="basis" >
    <v>      -2.45000000       2.45000000       1.27400000 </v>
    <v>       2.45000000      -2.45000000       1.27400000 </v>
    <v>       2.45000000       2.45000000      -1.27400000 </v>
   </varray>
   <i name="volume">     30.58874000 </i>
   <varray name="rec_basis" >
    <v>       0.00000000       0.20408163       0.39246468 </v>
    <v>       0.20408163       0.00000000       0.39246468 </v>
    <v>       0.20408163       0.20408163      -0.00000000 </v>
   </varray>
  </crystal>
  <varray name="positions" >
   <v>       0.25000000       0.75000000       0.50000000 </v>
   <v>       0.00000000       0.00000000       0.00000000 </v>
  </varray>
 </structure>
</modeling>
