unknown system                          
   1.00000000000000     
    -2.450000    2.450000    1.274000
     2.450000   -2.450000    1.274000
     2.450000    2.450000   -1.274000
   Si
     2
Direct
  0.250000  0.750000  0.500000
  0.000000  0.000000  0.000000
 
   36   36   36
 -5.2526     -4.3244     -1.7746      1.7739      5.5153      8.7005      10.824      11.709      11.487      10.509    
  9.2141      7.9103      6.7146      5.6949      4.8816      4.2761      3.8640      3.6265      3.5492      3.6265    
  3.8640      4.2761      4.8816      5.6949      6.7146      7.9103      9.2141      10.509      11.487      11.709    
  10.824      8.7005      5.5153      1.7739     -1.7746     -4.3244     -4.3244     -4.8070     -3.4807     -.68263    
  2.9089      6.4942      9.3824      11.152      11.708      11.246      10.147      8.8367      7.5573      6.4069    
  5.4434      4.6885      4.1382      3.7762      3.5840      3.5490      3.6685      3.9501      4.4100      5.0664    
  5.9312      6.9972      8.2260      9.5414      10.803      11.654      11.666      10.532      8.1829      4.8734    
  1.1706     -2.1531     -1.7746     -3.4807     -3.5201     -1.8879     0.99847      4.4422      7.6878      10.131    
  11.449      11.631      10.925      9.7276      8.4213      7.1793      6.0853      5.1857      4.4937      4.0010    
  3.6896      3.5424      3.5488      3.7086      4.0318      4.5352      5.2362      6.1435      7.2443      8.4934    
  9.8080      11.023      11.760      11.615      10.330      7.9039      4.6499      1.1706      1.7739     -.68264    
 -1.8879     -1.5351     0.27715      3.0808      6.1979      8.9505      10.841      11.652      11.451      10.525    
  9.2667      7.9814      6.7892      5.7606      4.9304      4.3038      3.8689      3.6072      3.5030      3.5485    
  3.7457      4.1062      4.6472      5.3847      6.3239      7.4469      8.7027      10.005      11.169      11.817    
  11.582      10.259      7.9039      4.8734      5.5153      2.9089     0.99847     0.27715     0.93204      2.7812    
  5.3399      7.9832      10.135      11.417      11.712      11.156      10.058      8.7807      7.5309      6.3997    
  5.4434      4.6855      4.1245      3.7457      3.5312      3.4672      3.5482      3.7786      4.1709      4.7421    
  5.5064      6.4655      7.5971      8.8466      10.125      11.242      11.835      11.582      10.330      8.1829    
  8.7005      6.4942      4.4422      3.0808      2.7812      3.6226      5.3673      7.5466      9.6158      11.116    
  11.786      11.602      10.752      9.5489      8.2841      7.0841      6.0230      5.1433      4.4582      3.9608    
  3.6350      3.4640      3.4361      3.5483      3.8064      4.2237      4.8164      5.5966      6.5629      7.6896    
  8.9198      10.166      11.242      11.817      11.615      10.532      10.824      9.3824      7.6878      6.1979    
  5.3399      5.3674      6.2723      7.7912      9.4992      10.950      11.803      11.910      11.324      10.265    
  9.0250      7.7925      6.6547      5.6702      4.8684      4.2542      3.8167      3.5394      3.4071      3.4105    
  3.5485      3.8281      4.2627      4.8674      5.6522      6.6126      7.7208      8.9198      10.125      11.169    
  11.760      11.666      11.709      11.152      10.131      8.9505      7.9832      7.5466      7.7912      8.6475    
  9.8537      11.049      11.892      12.157      11.791      10.907      9.7358      8.5052      7.3219      6.2558    
  5.3510      4.6257      4.0782      3.6953      3.4610      3.3620      3.3911      3.5488      3.8430      4.2867    
  4.8934      5.6709      6.6126      7.6896      8.8466      10.005      11.023      11.654      11.487      11.708    
  11.449      10.841      10.135      9.6158      9.4992      9.8537      10.575      11.424      12.116      12.412    
  12.189      11.469      10.404      9.2056      8.0083      6.8876      5.8989      5.0736      4.4206      3.9337    
  3.5989      3.4012      3.3293      3.3780      3.5491      3.8506      4.2948      4.8934      5.6522      6.5629    
  7.5971      8.7027      9.8080      10.803      10.509      11.246      11.631      11.652      11.417      11.116    
  10.950      11.049      11.424      11.957      12.450      12.693      12.542      11.955      11.013      9.8787    
  8.6987      7.5527      6.5037      5.5941      4.8444      4.2572      3.8234      3.5290      3.3608      3.3095    
  3.3714      3.5492      3.8506      4.2867      4.8674      5.5966      6.4655      7.4469      8.4934      9.5414    
  9.2141      10.147      10.925      11.451      11.712      11.786      11.803      11.892      12.116      12.450    
  12.779      12.954      12.837      12.359      11.545      10.507      9.3771      8.2376      7.1557      6.1825    
  5.3493      4.6686      4.1386      3.7490      3.4868      3.3405      3.3029      3.3714      3.5491      3.8430    
  4.2627      4.8164      5.5064      6.3239      7.2443      8.2260      7.9103      8.8367      9.7276      10.525    
  11.156      11.602      11.910      12.157      12.412      12.693      12.954      13.099      13.022      12.652    
  11.977      11.066      10.023      8.9259      7.8431      6.8319      5.9334      5.1704      4.5496      4.0667    
  3.7115      3.4726      3.3405      3.3095      3.3780      3.5488      3.8281      4.2237      4.7421      5.3847    
  6.1435      6.9972      6.7146      7.5573      8.4213      9.2667      10.058      10.752      11.324      11.791    
  12.189      12.542      12.837      13.022      13.026      12.784      12.272      11.522      10.608      9.5948    
  8.5492      7.5322      6.5928      5.7637      5.0615      4.4895      4.0426      3.7115      3.4868      3.3608    
  3.3293      3.3911      3.5485      3.8064      4.1709      4.6472      5.2362      5.9312      5.6949      6.4069    
  7.1793      7.9814      8.7807      9.5489      10.265      10.907      11.469      11.955      12.359      12.652    
  12.784      12.706      12.387      11.837      11.096      10.213      9.2497      8.2663      7.3179      6.4462    
  5.6777      5.0249      4.4895      4.0667      3.7490      3.5290      3.4012      3.3620      3.4105      3.5483    
  3.7786      4.1062      4.5352      5.0664      4.8816      5.4434      6.0853      6.7892      7.5309      8.2841    
  9.0250      9.7358      10.404      11.013      11.545      11.977      12.272      12.387      12.291      11.973    
  11.446      10.743      9.9109      9.0081      8.0912      7.2087      6.3968      5.6777      5.0615      4.5496    
  4.1386      3.8234      3.5989      3.4610      3.4071      3.4361      3.5482      3.7457      4.0318      4.4100    
  4.2761      4.6885      5.1857      5.7606      6.3997      7.0841      7.7925      8.5052      9.2056      9.8787    
  10.507      11.066      11.522      11.837      11.973      11.905      11.623      11.141      10.491      9.7212    
  8.8840      8.0319      7.2087      6.4462      5.7637      5.1704      4.6686      4.2572      3.9337      3.6953    
  3.5394      3.4640      3.4672      3.5485      3.7086      3.9501      3.8640      4.1382      4.4937      4.9304    
  5.4434      6.0230      6.6547      7.3219      8.0083      8.6987      9.3771      10.023      10.608      11.096    
  11.446      11.623      11.600      11.371      10.947      10.361      9.6566      8.8840      8.0912      7.3179    
  6.5928      5.9334      5.3493      4.8444      4.4206      4.0782      3.8167      3.6350      3.5312      3.5030    
  3.5488      3.6685      3.6265      3.7762      4.0010      4.3038      4.6855      5.1433      5.6702      6.2558    
  6.8876      7.5527      8.2376      8.9259      9.5948      10.213      10.743      11.141      11.371      11.407    
  11.239      10.881      10.361      9.7212      9.0081      8.2663      7.5322      6.8319      6.1825      5.5941    
  5.0736      4.6257      4.2542      3.9608      3.7457      3.6072      3.5424      3.5490      3.5492      3.5840    
  3.6896      3.8688      4.1245      4.4582      4.8684      5.3510      5.8989      6.5037      7.1557      7.8431    
  8.5492      9.2497      9.9109      10.491      10.947      11.239      11.340      11.239      10.947      10.491    
  9.9109      9.2497      8.5492      7.8431      7.1557      6.5037      5.8989      5.3510      4.8684      4.4582    
  4.1245      3.8689      3.6896      3.5840      3.6265      3.5490      3.5424      3.6071      3.7457      3.9608    
  4.2542      4.6257      5.0736      5.5941      6.1825      6.8319      7.5322      8.2663      9.0081      9.7212    
  10.361      10.881      11.239      11.407      11.371      11.141      10.743      10.213      9.5948      8.9259    
  8.2376      7.5527      6.8876      6.2558      5.6702      5.1433      4.6855      4.3038      4.0010      3.7762    
  3.8640      3.6685      3.5488      3.5030      3.5312      3.6350      3.8167      4.0782      4.4206      4.8444    
  5.3493      5.9334      6.5928      7.3179      8.0912      8.8840      9.6566      10.361      10.947      11.371    
  11.600      11.623      11.446      11.096      10.608      10.023      9.3771      8.6987      8.0083      7.3219    
  6.6547      6.0230      5.4434      4.9304      4.4937      4.1382      4.2761      3.9501      3.7086      3.5484    
  3.4672      3.4640      3.5394      3.6953      3.9337      4.2572      4.6686      5.1704      5.7637      6.4462    
  7.2087      8.0319      8.8840      9.7212      10.491      11.141      11.623      11.905      11.973      11.837    
  11.522      11.066      10.507      9.8787      9.2056      8.5052      7.7925      7.0841      6.3997      5.7606    
  5.1857      4.6885      4.8816      4.4100      4.0318      3.7457      3.5482      3.4361      3.4071      3.4610    
  3.5989      3.8234      4.1386      4.5496      5.0615      5.6777      6.3968      7.2087      8.0912      9.0081    
  9.9109      10.743      11.446      11.973      12.291      12.387      12.272      11.977      11.545      11.013    
  10.404      9.7358      9.0250      8.2841      7.5309      6.7892      6.0853      5.4434      5.6949      5.0664    
  4.5352      4.1062      3.7786      3.5482      3.4105      3.3620      3.4012      3.5290      3.7490      4.0667    
  4.4895      5.0249      5.6777      6.4462      7.3179      8.2663      9.2497      10.213      11.096      11.837    
  12.387      12.706      12.784      12.652      12.359      11.955      11.469      10.907      10.265      9.5489    
  8.7807      7.9814      7.1793      6.4069      6.7146      5.9312      5.2362      4.6472      4.1709      3.8064    
  3.5485      3.3911      3.3293      3.3608      3.4868      3.7115      4.0426      4.4895      5.0615      5.7637    
  6.5928      7.5322      8.5492      9.5948      10.608      11.522      12.272      12.784      13.026      13.022    
  12.837      12.542      12.189      11.791      11.324      10.752      10.058      9.2667      8.4213      7.5573    
  7.9103      6.9972      6.1435      5.3847      4.7421      4.2237      3.8281      3.5488      3.3780      3.3095    
  3.3406      3.4726      3.7115      4.0667      4.5496      5.1704      5.9334      6.8319      7.8431      8.9259    
  10.023      11.066      11.977      12.652      13.022      13.099      12.954      12.693      12.412      12.157    
  11.910      11.602      11.156      10.525      9.7276      8.8367      9.2141      8.2260      7.2443      6.3239    
  5.5064      4.8164      4.2627      3.8430      3.5491      3.3714      3.3029      3.3406      3.4868      3.7490    
  4.1386      4.6686      5.3493      6.1825      7.1557      8.2376      9.3771      10.507      11.545      12.359    
  12.837      12.954      12.779      12.450      12.116      11.892      11.803      11.786      11.712      11.451    
  10.925      10.147      10.509      9.5414      8.4934      7.4469      6.4655      5.5966      4.8674      4.2867    
  3.8506      3.5492      3.3714      3.3095      3.3608      3.5290      3.8234      4.2572      4.8444      5.5941    
  6.5037      7.5527      8.6987      9.8787      11.013      11.955      12.542      12.693      12.450      11.957    
  11.424      11.049      10.950      11.116      11.417      11.652      11.631      11.246      11.487      10.803    
  9.8080      8.7027      7.5971      6.5629      5.6522      4.8934      4.2948      3.8506      3.5491      3.3780    
  3.3293      3.4012      3.5989      3.9337      4.4206      5.0736      5.8989      6.8876      8.0083      9.2056    
  10.404      11.469      12.189      12.412      12.116      11.424      10.575      9.8537      9.4992      9.6158    
  10.135      10.841      11.449      11.708      11.709      11.654      11.023      10.005      8.8466      7.6896    
  6.6126      5.6709      4.8934      4.2867      3.8430      3.5488      3.3911      3.3620      3.4610      3.6953    
  4.0782      4.6257      5.3510      6.2558      7.3219      8.5052      9.7358      10.907      11.791      12.157    
  11.892      11.049      9.8537      8.6475      7.7912      7.5466      7.9832      8.9505      10.131      11.152    
  10.824      11.666      11.760      11.169      10.125      8.9198      7.7208      6.6126      5.6522      4.8674    
  4.2627      3.8281      3.5485      3.4105      3.4071      3.5394      3.8167      4.2542      4.8684      5.6702    
  6.6547      7.7925      9.0250      10.265      11.324      11.910      11.803      10.950      9.4992      7.7912    
  6.2723      5.3673      5.3399      6.1979      7.6878      9.3824      8.7005      10.532      11.615      11.817    
  11.242      10.166      8.9198      7.6896      6.5629      5.5966      4.8164      4.2237      3.8064      3.5482    
  3.4361      3.4640      3.6350      3.9608      4.4582      5.1433      6.0230      7.0841      8.2841      9.5489    
  10.752      11.602      11.786      11.116      9.6158      7.5466      5.3674      3.6226      2.7812      3.0808    
  4.4422      6.4942      5.5153      8.1829      10.330      11.582      11.835      11.242      10.125      8.8466    
  7.5971      6.4655      5.5064      4.7421      4.1709      3.7786      3.5482      3.4672      3.5312      3.7457    
  4.1245      4.6855      5.4434      6.3997      7.5309      8.7807      10.058      11.156      11.712      11.417    
  10.135      7.9832      5.3399      2.7812     0.93204     0.27715     0.99847      2.9089      1.7739      4.8734    
  7.9039      10.259      11.582      11.817      11.169      10.005      8.7027      7.4469      6.3239      5.3847    
  4.6472      4.1062      3.7457      3.5484      3.5030      3.6071      3.8688      4.3038      4.9304      5.7606    
  6.7892      7.9814      9.2667      10.525      11.451      11.652      10.841      8.9505      6.1979      3.0808    
 0.27715     -1.5351     -1.8879     -.68263     -1.7746      1.1706      4.6499      7.9039      10.330      11.615    
  11.760      11.023      9.8080      8.4934      7.2443      6.1435      5.2362      4.5352      4.0318      3.7086    
  3.5488      3.5424      3.6896      4.0010      4.4937      5.1857      6.0853      7.1793      8.4213      9.7276    
  10.925      11.631      11.449      10.131      7.6878      4.4422     0.99847     -1.8879     -3.5201     -3.4807    
 -4.3244     -2.1531      1.1706      4.8734      8.1829      10.532      11.666      11.654      10.803      9.5414    
  8.2260      6.9972      5.9312      5.0664      4.4100      3.9501      3.6685      3.5490      3.5840      3.7762    
  4.1382      4.6885      5.4434      6.4069      7.5573      8.8367      10.147      11.246      11.708      11.152    
  9.3824      6.4942      2.9089     -.68264     -3.4807     -4.8070     -4.3244     -3.6364     -1.3722      1.9120    
  5.4588      8.5387      10.636      11.546      11.367      10.423      9.1402      7.8363      6.6335      5.6021    
  4.7745      4.1534      3.7247      3.4692      3.3714      3.4245      3.6326      4.0094      4.5738      5.3420    
  6.3168      7.4739      8.7524      10.050      11.104      11.492      10.855      9.0317      6.1545      2.6712    
 -.72480     -3.2637     -3.6364     -4.3244     -3.2637     -.72482      2.6712      6.1545      9.0317      10.855    
  11.492      11.104      10.050      8.7524      7.4739      6.3168      5.3420      4.5738      4.0094      3.6326    
  3.4245      3.3714      3.4692      3.7247      4.1534      4.7745      5.6021      6.6335      7.8363      9.1402    
  10.423      11.367      11.546      10.636      8.5387      5.4588      1.9120     -1.3722     -1.3010     -3.1876    
 -3.4807     -2.1119     0.56554      3.8968      7.1351      9.6540      11.091      11.394      10.779      9.6267    
  8.3329      7.0915      5.9907      5.0803      4.3764      3.8713      3.5474      3.3868      3.3780      3.5197    
  3.8210      4.2989      4.9721      5.8519      6.9301      8.1667      9.4843      10.739      11.575      11.586    
  10.492      8.2541      5.1413      1.7120      2.0969     -.51887     -1.9678     -1.8880     -.31094      2.3503    
  5.4414      8.2726      10.308      11.283      11.223      10.389      9.1686      7.8942      6.7015      5.6657    
  4.8255      4.1884      3.7433      3.4717      3.3572      3.3910      3.5745      3.9187      4.4412      5.1598    
  6.0827      7.1961      8.4539      9.7736      10.991      11.739      11.639      10.462      8.2261      5.2462    
  5.7635      3.0222     0.88495     -.11366     0.27713      1.9394      4.4289      7.1252      9.4233      10.895    
  11.375      10.960      9.9419      8.6909      7.4492      6.3158      5.3520      4.5850      4.0154      3.6290    
  3.4076      3.3368      3.4105      3.6323      4.0147      4.5757      5.3313      6.2862      7.4220      8.6876    
  9.9979      11.176      11.863      11.719      10.564      8.4650      8.9415      6.6299      4.3798      2.7525    
  2.1715      2.7812      4.3984      6.5779      8.7621      10.450      11.329      11.327      10.600      9.4536    
  8.2066      7.0108      5.9457      5.0586      4.3657      3.8620      3.5314      3.3570      3.3265      3.4361    
  3.6915      4.1064      4.6979      5.4804      6.4551      7.5994      8.8592      10.149      11.291      11.949    
  11.826      10.790      11.105      9.5919      7.7393      6.0139      4.8794      4.6465      5.3673      6.8188    
  8.5833      10.187      11.245      11.552      11.125      10.158      8.9503      7.7291      6.5916      5.6018    
  4.7931      4.1729      3.7318      3.4531      3.3212      3.3265      3.4672      3.7506      4.1906      4.8037    
  5.6017      6.5828      7.7212      8.9617      10.220      11.331      11.990      11.946      12.052      11.459    
  10.327      8.9578      7.7430      7.0438      7.0665      7.7912      8.9817      10.270      11.280      11.739    
  11.546      10.781      9.6640      8.4509      7.2725      6.2036      5.2929      4.5620      4.0110      3.6276    
  3.3955      3.3011      3.3369      3.5030      3.8077      4.2648      4.8893      5.6908      6.6644      7.7826    
  8.9905      10.209      11.291      11.976      11.892      12.112      11.790      11.048      10.143      9.3856    
  9.0375      9.2162      9.8537      10.724      11.525      11.978      11.917      11.327      10.334      9.1603    
  7.9716      6.8507      5.8574      5.0267      4.3703      3.8831      3.5513      3.3598      3.2970      3.3572    
  3.5424      3.8610      4.3263      4.9516      5.7439      6.6963      7.7805      8.9437      10.112      11.168    
  10.958      11.723      12.091      12.034      11.658      11.164      10.785      10.693      10.937      11.424    
  11.956      12.302      12.280      11.811      10.948      9.8437      8.6737      7.5293      6.4769      5.5624    
  4.8093      4.2217      3.7913      3.5040      3.3463      3.3085      3.3868      3.5840      3.9087      4.3729    
  4.9880      5.7588      6.6768      7.7143      8.8221      9.9335      9.6780      10.662      11.461      11.961    
  12.140      12.078      11.923      11.832      11.905      12.143      12.450      12.664      12.627      12.239    
  11.493      10.485      9.3629      8.2252      7.1404      6.1628      5.3263      4.6453      4.1189      3.7370    
  3.4862      3.3548      3.3351      3.4245      3.6265      3.9491      4.4029      4.9971      5.7346      6.6063    
  7.5861      8.6296      8.3732      9.3544      10.289      11.103      11.705      12.074      12.261      12.361    
  12.471      12.634      12.825      12.954      12.904      12.581      11.951      11.060      10.019      8.9213    
  7.8351      6.8196      5.9181      5.1550      4.5382      4.0636      3.7209      3.4980      3.3850      3.3759    
  3.4692      3.6685      3.9807      4.4149      4.9781      5.6719      6.4872      7.4006      7.1648      8.0623    
  8.9739      9.8542      10.658      11.326      11.831      12.195      12.473      12.708      12.910      13.039    
  13.022      12.785      12.284      11.536      10.614      9.5949      8.5435      7.5215      6.5791      5.7503    
  5.0528      4.4901      4.0568      3.7431      3.5388      3.4359      3.4298      3.5197      3.7086      4.0025    
  4.4083      4.9316      5.5730      6.3241      6.1233      6.8880      7.7086      8.5500      9.3746      10.149    
  10.843      11.429      11.907      12.295      12.604      12.818      12.896      12.784      12.444      11.872    
  11.111      10.214      9.2409      8.2507      7.2988      6.4277      5.6647      5.0224      4.5022      4.0986    
  3.8032      3.6080      3.5065      3.4955      3.5745      3.7457      4.0136      4.3834      4.8594      5.4416    
  5.2831      5.8930      6.5810      7.3252      8.0974      8.8666      9.6053      10.293      10.914      11.453    
  11.905      12.255      12.478      12.533      12.387      12.027      11.468      10.741      9.8936      8.9808    
  8.0591      7.1773      6.3716      5.6643      5.0651      4.5747      4.1886      3.9004      3.7042      3.5954    
  3.5716      3.6323      3.7786      4.0136      4.3410      4.7640      4.6494      5.1037      5.6422      6.2553    
  6.9259      7.6316      8.3473      9.0502      9.7219      10.348      10.915      11.402      11.783      12.026    
  12.097      11.973      11.648      11.133      10.460      9.6757      8.8316      7.9797      7.1632      6.4137    
  5.7502      5.1808      4.7068      4.3255      4.0330      3.8258      3.7009      3.6564      3.6915      3.8064    
  4.0025      4.2826      4.2105      4.5199      4.9105      5.3803      5.9226      6.5245      7.1684      7.8344    
  8.5039      9.1607      9.7898      10.374      10.889      11.304      11.585      11.699      11.623      11.352    
  10.898      10.292      9.5773      8.8037      8.0178      7.2587      6.5541      5.9211      5.3676      4.8963    
  4.5071      4.1989      3.9705      3.8207      3.7479      3.7506      3.8281      3.9807      3.9491      4.1275    
  4.3806      4.7104      5.1166      5.5942      6.1341      6.7227      7.3452      7.9867      8.6332      9.2695    
  9.8758      10.425      10.884      11.215      11.385      11.371      11.166      10.783      10.249      9.6068    
  8.9006      8.1738      7.4618      6.7898      6.1737      5.6220      5.1398      4.7300      4.3949      4.1356    
  3.9522      3.8436      3.8077      3.8430      3.8506      3.9087      4.0365      4.2363      4.5106      4.8595    
  5.2803      5.7665      6.3087      6.8962      7.5179      8.1620      8.8131      9.4499      10.043      10.555    
  10.946      11.183      11.239      11.108      10.799      10.338      9.7645      9.1192      8.4424      7.7664    
  7.1144      6.5017      5.9384      5.4322      4.9898      4.6168      4.3171      4.0920      3.9408      3.8610    
  3.9087      3.8506      3.8610      3.9408      4.0920      4.3171      4.6168      4.9898      5.4322      5.9384    
  6.5017      7.1144      7.7664      8.4424      9.1192      9.7645      10.338      10.799      11.108      11.239    
  11.183      10.946      10.555      10.043      9.4499      8.8131      8.1620      7.5179      6.8962      6.3087    
  5.7665      5.2803      4.8595      4.5106      4.2363      4.0365      4.1275      3.9491      3.8430      3.8077    
  3.8436      3.9522      4.1356      4.3949      4.7300      5.1398      5.6220      6.1737      6.7898      7.4618    
  8.1738      8.9006      9.6068      10.249      10.783      11.166      11.371      11.385      11.215      10.884    
  10.425      9.8758      9.2695      8.6332      7.9867      7.3452      6.7227      6.1341      5.5943      5.1166    
  4.7104      4.3806      4.5199      4.2105      3.9808      3.8281      3.7506      3.7479      3.8207      3.9706    
  4.1989      4.5071      4.8963      5.3676      5.9211      6.5541      7.2587      8.0178      8.8037      9.5773    
  10.292      10.898      11.352      11.623      11.699      11.585      11.304      10.889      10.374      9.7898    
  9.1607      8.5039      7.8344      7.1684      6.5245      5.9226      5.3803      4.9105      5.1037      4.6494    
  4.2826      4.0025      3.8064      3.6915      3.6564      3.7009      3.8258      4.0330      4.3255      4.7068    
  5.1808      5.7502      6.4137      7.1632      7.9797      8.8316      9.6757      10.460      11.133      11.648    
  11.973      12.097      12.026      11.783      11.402      10.915      10.348      9.7219      9.0502      8.3473    
  7.6316      6.9259      6.2553      5.6422      5.8931      5.2831      4.7640      4.3410      4.0136      3.7786    
  3.6323      3.5717      3.5954      3.7042      3.9004      4.1886      4.5747      5.0651      5.6643      6.3716    
  7.1773      8.0591      8.9808      9.8936      10.741      11.468      12.027      12.387      12.533      12.478    
  12.255      11.905      11.453      10.914      10.293      9.6053      8.8666      8.0974      7.3252      6.5810    
  6.8880      6.1233      5.4416      4.8594      4.3834      4.0136      3.7457      3.5745      3.4955      3.5065    
  3.6080      3.8032      4.0986      4.5022      5.0224      5.6647      6.4277      7.2988      8.2507      9.2409    
  10.214      11.111      11.872      12.444      12.784      12.896      12.818      12.604      12.295      11.907    
  11.429      10.843      10.149      9.3746      8.5500      7.7086      8.0622      7.1648      6.3241      5.5730    
  4.9317      4.4083      4.0025      3.7086      3.5197      3.4298      3.4359      3.5388      3.7431      4.0568    
  4.4901      5.0528      5.7503      6.5791      7.5215      8.5435      9.5949      10.614      11.536      12.284    
  12.785      13.022      13.039      12.910      12.708      12.473      12.195      11.831      11.326      10.658    
  9.8542      8.9739      9.3544      8.3731      7.4005      6.4872      5.6719      4.9781      4.4149      3.9808    
  3.6685      3.4692      3.3759      3.3850      3.4980      3.7209      4.0636      4.5382      5.1550      5.9181    
  6.8197      7.8351      8.9213      10.019      11.060      11.951      12.581      12.904      12.954      12.825    
  12.634      12.471      12.361      12.261      12.074      11.705      11.103      10.289      10.662      9.6780    
  8.6296      7.5861      6.6063      5.7347      4.9971      4.4029      3.9491      3.6265      3.4245      3.3351    
  3.3548      3.4862      3.7370      4.1189      4.6453      5.3263      6.1628      7.1404      8.2252      9.3629    
  10.485      11.493      12.239      12.627      12.664      12.450      12.143      11.905      11.832      11.923    
  12.078      12.140      11.961      11.461      11.723      10.958      9.9335      8.8221      7.7143      6.6768    
  5.7589      4.9881      4.3729      3.9087      3.5840      3.3868      3.3084      3.3463      3.5040      3.7913    
  4.2217      4.8093      5.5624      6.4769      7.5293      8.6737      9.8437      10.948      11.811      12.280    
  12.302      11.956      11.424      10.937      10.693      10.785      11.164      11.658      12.034      12.091    
  12.112      11.892      11.168      10.112      8.9437      7.7805      6.6963      5.7439      4.9516      4.3263    
  3.8610      3.5424      3.3572      3.2969      3.3598      3.5513      3.8831      4.3703      5.0267      5.8574    
  6.8507      7.9716      9.1603      10.334      11.327      11.917      11.978      11.524      10.724      9.8537    
  9.2162      9.0375      9.3856      10.143      11.048      11.790      11.459      12.052      11.976      11.291    
  10.209      8.9905      7.7826      6.6644      5.6908      4.8893      4.2648      3.8077      3.5030      3.3368    
  3.3011      3.3955      3.6276      4.0110      4.5620      5.2929      6.2036      7.2725      8.4509      9.6640    
  10.781      11.546      11.739      11.280      10.270      8.9817      7.7912      7.0665      7.0438      7.7430    
  8.9578      10.327      9.5919      11.105      11.946      11.990      11.331      10.220      8.9617      7.7212    
  6.5828      5.6017      4.8037      4.1906      3.7506      3.4672      3.3264      3.3212      3.4531      3.7318    
  4.1730      4.7931      5.6018      6.5916      7.7291      8.9503      10.158      11.125      11.552      11.245    
  10.187      8.5833      6.8188      5.3674      4.6466      4.8794      6.0140      7.7394      6.6299      8.9415    