unknown system                          
   1.00000000000000     
    -2.450000    2.450000    1.274000
     2.450000   -2.450000    1.274000
     2.450000    2.450000   -1.274000
   Si
     2
Direct
  0.250000  0.750000  0.500000
  0.000000  0.000000  0.000000
 
   36   36   36
 -.52577624056E+01 -.43291889529E+01 -.17782556922E+01 0.17717655234E+01 0.55144534826E+01
 0.87006216673E+01 0.10824658319E+02 0.11708964923E+02 0.11486404590E+02 0.10508576665E+02
 0.92132617904E+01 0.79095066269E+01 0.67141378566E+01 0.56949459188E+01 0.48821217941E+01
 0.42770694777E+01 0.38652944054E+01 0.36280732770E+01 0.35508080978E+01 0.36280700346E+01
 0.38652987107E+01 0.42770806221E+01 0.48821275061E+01 0.56949444786E+01 0.67141389048E+01
 0.79095099391E+01 0.92132573002E+01 0.10508565929E+02 0.11486400006E+02 0.11708967865E+02
 0.10824658506E+02 0.87006171579E+01 0.55144501832E+01 0.17717593405E+01 -.17782730679E+01
 -.43292077251E+01 -.43292077251E+01 -.48119319577E+01 -.34849841037E+01 -.68572809312E+00
 0.29072537438E+01 0.64938407490E+01 0.93826893593E+01 0.11152318964E+02 0.11708415984E+02
 0.11246008172E+02 0.10146637288E+02 0.88358960176E+01 0.75566298637E+01 0.64066737821E+01
 0.54436195150E+01 0.46891321723E+01 0.41393103655E+01 0.37775893144E+01 0.35856136274E+01
 0.35506980657E+01 0.36700075926E+01 0.39513884010E+01 0.44108466110E+01 0.50668094243E+01
 0.59310622606E+01 0.69965832602E+01 0.82251566658E+01 0.95405164164E+01 0.10802104865E+02
 0.11653466282E+02 0.11666522104E+02 0.10531816275E+02 0.81827217179E+01 0.48722581428E+01
 0.11681406829E+01 -.21569496717E+01 -.17782730679E+01 -.34849984349E+01 -.35244363114E+01
 -.18914762464E+01 0.99618660120E+00 0.44412200171E+01 0.76878835816E+01 0.10131481815E+02
 0.11449249226E+02 0.11631105692E+02 0.10924968737E+02 0.97269218346E+01 0.84206446839E+01
 0.71788182240E+01 0.60851902078E+01 0.51860401649E+01 0.44945602075E+01 0.40022115445E+01
 0.36911474332E+01 0.35440220081E+01 0.35504238245E+01 0.37101082580E+01 0.40329887370E+01
 0.45359388002E+01 0.52364915816E+01 0.61432490869E+01 0.72436194360E+01 0.84923941748E+01
 0.98069916477E+01 0.11022362657E+02 0.11759312906E+02 0.11615073239E+02 0.10330477846E+02
 0.79036061073E+01 0.46486926716E+01 0.11681406829E+01 0.17717593405E+01 -.68573899539E+00
 -.18914833450E+01 -.15383927991E+01 0.27466757632E+00 0.30795080418E+01 0.61977042670E+01
 0.89510085594E+01 0.10841883250E+02 0.11652387965E+02 0.11450919564E+02 0.10524665199E+02
 0.92661155494E+01 0.79808409735E+01 0.67888846505E+01 0.57607051893E+01 0.49309042534E+01
 0.43048076149E+01 0.38701809200E+01 0.36087374766E+01 0.35046979451E+01 0.35501162126E+01
 0.37471585750E+01 0.41073581483E+01 0.46478938798E+01 0.53848844007E+01 0.63235099368E+01
 0.74460335799E+01 0.87016728510E+01 0.10003738437E+02 0.11168347222E+02 0.11816555105E+02
 0.11581825083E+02 0.10258873613E+02 0.79036061073E+01 0.48722581428E+01 0.55144501832E+01
 0.29072508572E+01 0.99618360188E+00 0.27466801335E+00 0.92991040858E+00 0.27799054259E+01
 0.53395586290E+01 0.79836845109E+01 0.10136284282E+02 0.11417659003E+02 0.11712399003E+02
 0.11155840344E+02 0.10057723672E+02 0.87801074799E+01 0.75304855450E+01 0.63995776184E+01
 0.54437092497E+01 0.46862241799E+01 0.41256556148E+01 0.37471799264E+01 0.35328769110E+01
 0.34689479211E+01 0.35499194626E+01 0.37800495185E+01 0.41719872426E+01 0.47426841644E+01
 0.55064407903E+01 0.64650096996E+01 0.75962511172E+01 0.88454956881E+01 0.10124183074E+02
 0.11240886268E+02 0.11834500051E+02 0.11581825083E+02 0.10330477846E+02 0.81827217179E+01
 0.87006171579E+01 0.64938392827E+01 0.44412199874E+01 0.30795117131E+01 0.27799115387E+01
 0.36216955820E+01 0.53671359560E+01 0.75471355859E+01 0.96168867168E+01 0.11117024573E+02
 0.11786469173E+02 0.11602695152E+02 0.10752066063E+02 0.95484860365E+01 0.82835810488E+01
 0.70837596172E+01 0.60230412106E+01 0.51437235660E+01 0.44590168470E+01 0.39620582247E+01
 0.36365778213E+01 0.34657135671E+01 0.34378827648E+01 0.35499258826E+01 0.38077784925E+01
 0.42246890335E+01 0.48169022296E+01 0.55966252016E+01 0.65623981352E+01 0.76886689524E+01
 0.89187150989E+01 0.10164708538E+02 0.11240886268E+02 0.11816555105E+02 0.11615073239E+02
 0.10531816275E+02 0.10824658506E+02 0.93826899127E+01 0.76878833334E+01 0.61977057986E+01
 0.53395661623E+01 0.53671448432E+01 0.62725038451E+01 0.77919560552E+01 0.95004282360E+01
 0.10950938411E+02 0.11804475060E+02 0.11910664205E+02 0.11324547007E+02 0.10264852720E+02
 0.90245487571E+01 0.77921014433E+01 0.66545041386E+01 0.56703690930E+01 0.48690052532E+01
 0.42551362358E+01 0.38180462771E+01 0.35410790530E+01 0.34089514353E+01 0.34123471530E+01
 0.35501347169E+01 0.38294622929E+01 0.42636749438E+01 0.48678947333E+01 0.56520967417E+01
 0.66120183472E+01 0.77198590393E+01 0.89187150989E+01 0.10124183074E+02 0.11168347222E+02
 0.11759312906E+02 0.11666522104E+02 0.11708967865E+02 0.11152324899E+02 0.10131486250E+02
 0.89510089691E+01 0.79836864446E+01 0.75471440511E+01 0.77919649318E+01 0.86486194341E+01
 0.98552110056E+01 0.11050840280E+02 0.11893422543E+02 0.12158584610E+02 0.11792033524E+02
 0.10907300794E+02 0.97356371425E+01 0.85048233970E+01 0.73215451215E+01 0.62556936192E+01
 0.53512830726E+01 0.46264100970E+01 0.40792459399E+01 0.36967348834E+01 0.34627232476E+01
 0.33638305787E+01 0.33928980463E+01 0.35504519760E+01 0.38443687522E+01 0.42876152412E+01
 0.48938498214E+01 0.56708156198E+01 0.66120183472E+01 0.76886689524E+01 0.88454956881E+01
 0.10003738437E+02 0.11022362657E+02 0.11653466282E+02 0.11486400006E+02 0.11708419660E+02
 0.11449258567E+02 0.10841889971E+02 0.10136285292E+02 0.96168885680E+01 0.95004355539E+01
 0.98552179812E+01 0.10576344187E+02 0.11425987979E+02 0.12118435291E+02 0.12414161925E+02
 0.12190424858E+02 0.11469893482E+02 0.10403644090E+02 0.92053397287E+01 0.80079159157E+01
 0.68873230323E+01 0.58989571690E+01 0.50739458530E+01 0.44213920346E+01 0.39348964244E+01
 0.36004060819E+01 0.34029436745E+01 0.33311637900E+01 0.33798385199E+01 0.35507312313E+01
 0.38519641766E+01 0.42956882605E+01 0.48938498214E+01 0.56520967417E+01 0.65623981352E+01
 0.75962511172E+01 0.87016728510E+01 0.98069916477E+01 0.10802104865E+02 0.10508565929E+02
 0.11246001587E+02 0.11631108917E+02 0.11652398075E+02 0.11417666539E+02 0.11117026387E+02
 0.10950940203E+02 0.11050845464E+02 0.11425992298E+02 0.11959262125E+02 0.12451815451E+02
 0.12695402383E+02 0.12543306454E+02 0.11956497659E+02 0.11013115737E+02 0.98787340277E+01
 0.86984400185E+01 0.75524012399E+01 0.65035509817E+01 0.55942045037E+01 0.48448985565E+01
 0.42580979351E+01 0.38246600158E+01 0.35306321561E+01 0.33626628541E+01 0.33114177151E+01
 0.33732925611E+01 0.35508415199E+01 0.38519641766E+01 0.42876152412E+01 0.48678947333E+01
 0.55966252016E+01 0.64650096996E+01 0.74460335799E+01 0.84923941748E+01 0.95405164164E+01
 0.92132573002E+01 0.10146628493E+02 0.10924961687E+02 0.11450921469E+02 0.11712407617E+02
 0.11786476221E+02 0.11804477698E+02 0.11893424461E+02 0.12118438303E+02 0.12451817306E+02
 0.12781875598E+02 0.12956021752E+02 0.12838543927E+02 0.12360668958E+02 0.11546485871E+02
 0.10507456280E+02 0.93770986627E+01 0.82374157513E+01 0.71554544026E+01 0.61823396403E+01
 0.53494016810E+01 0.46691056065E+01 0.41395120487E+01 0.37502859218E+01 0.34884096650E+01
 0.33424062931E+01 0.33048148903E+01 0.33732925611E+01 0.35507312313E+01 0.38443687522E+01
 0.42636749438E+01 0.48169022296E+01 0.55064407903E+01 0.63235099368E+01 0.72436194360E+01
 0.82251566658E+01 0.79095099391E+01 0.88358967030E+01 0.97269163325E+01 0.10524658973E+02
 0.11155840404E+02 0.11602700673E+02 0.11910669674E+02 0.12158587809E+02 0.12414164137E+02
 0.12695403796E+02 0.12956021863E+02 0.13101048496E+02 0.13024638749E+02 0.12653467448E+02
 0.11978896669E+02 0.11066836433E+02 0.10023297446E+02 0.89259238177E+01 0.78428804940E+01
 0.68317083470E+01 0.59333409945E+01 0.51705192119E+01 0.45500784031E+01 0.40676146911E+01
 0.37128462263E+01 0.34742787207E+01 0.33424062931E+01 0.33114177151E+01 0.33798385199E+01
 0.35504519760E+01 0.38294622929E+01 0.42246890335E+01 0.47426841644E+01 0.53848844007E+01
 0.61432490869E+01 0.69965832602E+01 0.67141389048E+01 0.75566356234E+01 0.84206485874E+01
 0.92661133275E+01 0.10057718858E+02 0.10752064170E+02 0.11324548879E+02 0.11792036914E+02
 0.12190428284E+02 0.12543308972E+02 0.12838544429E+02 0.13024637910E+02 0.13028529476E+02
 0.12786374253E+02 0.12273816172E+02 0.11523527176E+02 0.10608688988E+02 0.95952352025E+01
 0.85492394819E+01 0.75320246973E+01 0.65925679327E+01 0.57635955348E+01 0.50616311120E+01
 0.44900321179E+01 0.40435282592E+01 0.37128462263E+01 0.34884096650E+01 0.33626628541E+01
 0.33311637900E+01 0.33928980463E+01 0.35501347169E+01 0.38077784925E+01 0.41719872426E+01
 0.46478938798E+01 0.52364915816E+01 0.59310622606E+01 0.56949444786E+01 0.64066743270E+01
 0.71788231530E+01 0.79808454665E+01 0.87801074577E+01 0.95484826739E+01 0.10264849420E+02
 0.10907299653E+02 0.11469895031E+02 0.11956500946E+02 0.12360671464E+02 0.12653467437E+02
 0.12786373094E+02 0.12708378941E+02 0.12389326168E+02 0.11838670711E+02 0.11097020784E+02
 0.10214196730E+02 0.92501184611E+01 0.82664096059E+01 0.73177731973E+01 0.64459967280E+01
 0.56776265160E+01 0.50250809492E+01 0.44900321179E+01 0.40676146911E+01 0.37502859218E+01
 0.35306321561E+01 0.34029436745E+01 0.33638305787E+01 0.34123471530E+01 0.35499258826E+01
 0.37800495185E+01 0.41073581483E+01 0.45359388002E+01 0.50668094243E+01 0.48821275061E+01
 0.54436186000E+01 0.60851891311E+01 0.67888865864E+01 0.75304884566E+01 0.82835820731E+01
 0.90245469611E+01 0.97356336055E+01 0.10403641308E+02 0.11013115969E+02 0.11546488452E+02
 0.11978898535E+02 0.12273815794E+02 0.12389325195E+02 0.12292916376E+02 0.11975222577E+02
 0.11448116876E+02 0.10744038175E+02 0.99118000578E+01 0.90086115082E+01 0.80912699946E+01
 0.72085791025E+01 0.63966343855E+01 0.56776265160E+01 0.50616311120E+01 0.45500784031E+01
 0.41395120487E+01 0.38246600158E+01 0.36004060819E+01 0.34627232476E+01 0.34089514353E+01
 0.34378827648E+01 0.35499194626E+01 0.37471585750E+01 0.40329887370E+01 0.44108466110E+01
 0.42770806221E+01 0.46891384727E+01 0.51860403467E+01 0.57607027634E+01 0.63995760128E+01
 0.70837602217E+01 0.77921030642E+01 0.85048235035E+01 0.92053371001E+01 0.98787308571E+01
 0.10507455471E+02 0.11066837659E+02 0.11523527887E+02 0.11838670255E+02 0.11975222286E+02
 0.11906839780E+02 0.11625125673E+02 0.11142915979E+02 0.10492881278E+02 0.97221417810E+01
 0.88844605080E+01 0.80319939373E+01 0.72085791025E+01 0.64459967280E+01 0.57635955348E+01
 0.51705192119E+01 0.46691056065E+01 0.42580979351E+01 0.39348964244E+01 0.36967348834E+01
 0.35410790530E+01 0.34657135671E+01 0.34689479211E+01 0.35501162126E+01 0.37101082580E+01
 0.39513884010E+01 0.38652987107E+01 0.41393184582E+01 0.44945668980E+01 0.49309061182E+01
 0.54437064146E+01 0.60230373589E+01 0.66545034341E+01 0.73215477371E+01 0.80079180294E+01
 0.86984387736E+01 0.93770957151E+01 0.10023295712E+02 0.10608688586E+02 0.11097020449E+02
 0.11448116940E+02 0.11625126519E+02 0.11602660392E+02 0.11373120608E+02 0.10949287276E+02
 0.10362567697E+02 0.96575609359E+01 0.88844605080E+01 0.80912699946E+01 0.73177731973E+01
 0.65925679327E+01 0.59333409945E+01 0.53494016810E+01 0.48448985565E+01 0.44213920346E+01
 0.40792459399E+01 0.38180462771E+01 0.36365778213E+01 0.35328769110E+01 0.35046979451E+01
 0.35504238245E+01 0.36700075926E+01 0.36280700346E+01 0.37775895439E+01 0.40022161041E+01
 0.43048136974E+01 0.46862272389E+01 0.51437215227E+01 0.56703654692E+01 0.62556937598E+01
 0.68873273293E+01 0.75524049986E+01 0.82374156463E+01 0.89259213011E+01 0.95952328744E+01
 0.10214195129E+02 0.10744037483E+02 0.11142917145E+02 0.11373122713E+02 0.11408759203E+02
 0.11241540077E+02 0.10882998134E+02 0.10362567697E+02 0.97221417810E+01 0.90086115082E+01
 0.82664096059E+01 0.75320246973E+01 0.68317083470E+01 0.61823396403E+01 0.55942045037E+01
 0.50739458530E+01 0.46264100970E+01 0.42551362358E+01 0.39620582247E+01 0.37471799264E+01
 0.36087374766E+01 0.35440220081E+01 0.35506980657E+01 0.35508080978E+01 0.35856107086E+01
 0.36911443361E+01 0.38701811721E+01 0.41256595057E+01 0.44590204654E+01 0.48690055507E+01
 0.53512825865E+01 0.58989604184E+01 0.65035573707E+01 0.71554591203E+01 0.78428810430E+01
 0.85492375768E+01 0.92501161411E+01 0.99117980746E+01 0.10492880910E+02 0.10949289600E+02
 0.11241543016E+02 0.11342230204E+02 0.11241540077E+02 0.10949287276E+02 0.10492881278E+02
 0.99118000578E+01 0.92501184611E+01 0.85492394819E+01 0.78428804940E+01 0.71554544026E+01
 0.65035509817E+01 0.58989571690E+01 0.53512830726E+01 0.48690052532E+01 0.44590168470E+01
 0.41256556148E+01 0.38701809200E+01 0.36911474332E+01 0.35856136274E+01 0.36280732770E+01
 0.35507001592E+01 0.35440188017E+01 0.36087303534E+01 0.37471749554E+01 0.39620591426E+01
 0.42551406971E+01 0.46264146084E+01 0.50739510288E+01 0.55942122958E+01 0.61823479576E+01
 0.68317132629E+01 0.75320255293E+01 0.82664084648E+01 0.90086096693E+01 0.97221399610E+01
 0.10362567768E+02 0.10883000955E+02 0.11241543016E+02 0.11408759203E+02 0.11373120608E+02
 0.11142915979E+02 0.10744038175E+02 0.10214196730E+02 0.95952352025E+01 0.89259238177E+01
 0.82374157513E+01 0.75524012399E+01 0.68873230323E+01 0.62556936192E+01 0.56703690930E+01
 0.51437235660E+01 0.46862241799E+01 0.43048076149E+01 0.40022115445E+01 0.37775893144E+01
 0.38652944054E+01 0.36700083075E+01 0.35504242872E+01 0.35046918710E+01 0.35328652999E+01
 0.36365687811E+01 0.38180456575E+01 0.40792526964E+01 0.44214022863E+01 0.48449104971E+01
 0.53494140312E+01 0.59333504888E+01 0.65925724283E+01 0.73177740905E+01 0.80912695287E+01
 0.88844591279E+01 0.96575592598E+01 0.10362567768E+02 0.10949289600E+02 0.11373122713E+02
 0.11602660392E+02 0.11625125673E+02 0.11448116876E+02 0.11097020784E+02 0.10608688988E+02
 0.10023297446E+02 0.93770986627E+01 0.86984400185E+01 0.80079159157E+01 0.73215451215E+01
 0.66545041386E+01 0.60230412106E+01 0.54437092497E+01 0.49309042534E+01 0.44945602075E+01
 0.41393103655E+01 0.42770694777E+01 0.39513782743E+01 0.37101025951E+01 0.35501112415E+01
 0.34689379699E+01 0.34657001046E+01 0.35410700486E+01 0.36967361802E+01 0.39349071848E+01
 0.42581141207E+01 0.46691234369E+01 0.51705348258E+01 0.57636052939E+01 0.64460005891E+01
 0.72085799614E+01 0.80319937447E+01 0.88844591279E+01 0.97221399610E+01 0.10492880910E+02
 0.11142917145E+02 0.11625126519E+02 0.11906839780E+02 0.11975222577E+02 0.11838670711E+02
 0.11523527176E+02 0.11066836433E+02 0.10507456280E+02 0.98787340277E+01 0.92053397287E+01
 0.85048233970E+01 0.77921014433E+01 0.70837596172E+01 0.63995776184E+01 0.57607051893E+01
 0.51860401649E+01 0.46891321723E+01 0.48821217941E+01 0.44108327254E+01 0.40329724161E+01
 0.37471457501E+01 0.35499092619E+01 0.34378716073E+01 0.34089408739E+01 0.34627193086E+01
 0.36004123100E+01 0.38246753002E+01 0.41395327300E+01 0.45500999344E+01 0.50616482939E+01
 0.56776361108E+01 0.63966379426E+01 0.72085799614E+01 0.80912695287E+01 0.90086096693E+01
 0.99117980746E+01 0.10744037483E+02 0.11448116940E+02 0.11975222286E+02 0.12292916376E+02
 0.12389326168E+02 0.12273816172E+02 0.11978896669E+02 0.11546485871E+02 0.11013115737E+02
 0.10403644090E+02 0.97356371425E+01 0.90245487571E+01 0.82835810488E+01 0.75304855450E+01
 0.67888846505E+01 0.60851902078E+01 0.54436195150E+01 0.56949459188E+01 0.50668047326E+01
 0.45359244451E+01 0.41073396118E+01 0.37800337688E+01 0.35499144600E+01 0.34123390613E+01
 0.33638270610E+01 0.34029473863E+01 0.35306438707E+01 0.37503045813E+01 0.40676377497E+01
 0.44900551781E+01 0.50250985221E+01 0.56776361108E+01 0.64460005891E+01 0.73177740905E+01
 0.82664084648E+01 0.92501161411E+01 0.10214195129E+02 0.11097020449E+02 0.11838670255E+02
 0.12389325195E+02 0.12708378941E+02 0.12786374253E+02 0.12653467448E+02 0.12360668958E+02
 0.11956497659E+02 0.11469893482E+02 0.10907300794E+02 0.10264852720E+02 0.95484860365E+01
 0.87801074799E+01 0.79808409735E+01 0.71788182240E+01 0.64066737821E+01 0.67141378566E+01
 0.59310648174E+01 0.52364898225E+01 0.46478840201E+01 0.41719733176E+01 0.38077662388E+01
 0.35501269637E+01 0.33928959689E+01 0.33311682191E+01 0.33626733360E+01 0.34884251369E+01
 0.37128664587E+01 0.40435519817E+01 0.44900551781E+01 0.50616482939E+01 0.57636052939E+01
 0.65925724283E+01 0.75320255293E+01 0.85492375768E+01 0.95952328744E+01 0.10608688586E+02
 0.11523527887E+02 0.12273815794E+02 0.12786373094E+02 0.13028529476E+02 0.13024638749E+02
 0.12838543927E+02 0.12543306454E+02 0.12190424858E+02 0.11792033524E+02 0.11324547007E+02
 0.10752066063E+02 0.10057723672E+02 0.92661155494E+01 0.84206446839E+01 0.75566298637E+01
 0.79095066269E+01 0.69965843731E+01 0.61432547189E+01 0.53848888138E+01 0.47426842298E+01
 0.42246857360E+01 0.38294582095E+01 0.35504501879E+01 0.33798422969E+01 0.33114278569E+01
 0.33424204688E+01 0.34742954463E+01 0.37128664587E+01 0.40676377497E+01 0.45500999344E+01
 0.51705348258E+01 0.59333504888E+01 0.68317132629E+01 0.78428810430E+01 0.89259213011E+01
 0.10023295712E+02 0.11066837659E+02 0.11978898535E+02 0.12653467437E+02 0.13024637910E+02
 0.13101048496E+02 0.12956021752E+02 0.12695402383E+02 0.12414161925E+02 0.12158584610E+02
 0.11910664205E+02 0.11602695152E+02 0.11155840344E+02 0.10524665199E+02 0.97269218346E+01
 0.88358960176E+01 0.92132617904E+01 0.82251592996E+01 0.72436258792E+01 0.63235208789E+01
 0.55064536799E+01 0.48169145589E+01 0.42636839356E+01 0.38443732000E+01 0.35507343642E+01
 0.33732996819E+01 0.33048270281E+01 0.33424204688E+01 0.34884251369E+01 0.37503045813E+01
 0.41395327300E+01 0.46691234369E+01 0.53494140312E+01 0.61823479576E+01 0.71554591203E+01
 0.82374156463E+01 0.93770957151E+01 0.10507455471E+02 0.11546488452E+02 0.12360671464E+02
 0.12838544429E+02 0.12956021863E+02 0.12781875598E+02 0.12451815451E+02 0.12118435291E+02
 0.11893422543E+02 0.11804475060E+02 0.11786469173E+02 0.11712399003E+02 0.11450919564E+02
 0.10924968737E+02 0.10146637288E+02 0.10508576665E+02 0.95405266894E+01 0.84924050471E+01
 0.74460472763E+01 0.64650267717E+01 0.55966461538E+01 0.48679174670E+01 0.42876334698E+01
 0.38519737667E+01 0.35508464811E+01 0.33732996819E+01 0.33114278569E+01 0.33626733360E+01
 0.35306438707E+01 0.38246753002E+01 0.42581141207E+01 0.48449104971E+01 0.55942122958E+01
 0.65035573707E+01 0.75524049986E+01 0.86984387736E+01 0.98787308571E+01 0.11013115969E+02
 0.11956500946E+02 0.12543308972E+02 0.12695403796E+02 0.12451817306E+02 0.11959262125E+02
 0.11425987979E+02 0.11050840280E+02 0.10950938411E+02 0.11117024573E+02 0.11417659003E+02
 0.11652387965E+02 0.11631105692E+02 0.11246008172E+02 0.11486404590E+02 0.10802115344E+02
 0.98070068041E+01 0.87016919344E+01 0.75962716320E+01 0.65624200631E+01 0.56521229850E+01
 0.48938782569E+01 0.42957098366E+01 0.38519737667E+01 0.35507343642E+01 0.33798422969E+01
 0.33311682191E+01 0.34029473863E+01 0.36004123100E+01 0.39349071848E+01 0.44214022863E+01
 0.50739510288E+01 0.58989604184E+01 0.68873273293E+01 0.80079180294E+01 0.92053371001E+01
 0.10403641308E+02 0.11469895031E+02 0.12190428284E+02 0.12414164137E+02 0.12118438303E+02
 0.11425992298E+02 0.10576344187E+02 0.98552110056E+01 0.95004282360E+01 0.96168867168E+01
 0.10136284282E+02 0.10841883250E+02 0.11449249226E+02 0.11708415984E+02 0.11708964923E+02
 0.11653467694E+02 0.11022370775E+02 0.10003756562E+02 0.88455208387E+01 0.76886939744E+01
 0.66120427394E+01 0.56708436229E+01 0.48938782569E+01 0.42876334698E+01 0.38443732000E+01
 0.35504501879E+01 0.33928959689E+01 0.33638270610E+01 0.34627193086E+01 0.36967361802E+01
 0.40792526964E+01 0.46264146084E+01 0.53512825865E+01 0.62556937598E+01 0.73215477371E+01
 0.85048235035E+01 0.97356336055E+01 0.10907299653E+02 0.11792036914E+02 0.12158587809E+02
 0.11893424461E+02 0.11050845464E+02 0.98552179812E+01 0.86486194341E+01 0.77919560552E+01
 0.75471355859E+01 0.79836845109E+01 0.89510085594E+01 0.10131481815E+02 0.11152318964E+02
 0.10824658319E+02 0.11666520973E+02 0.11759310785E+02 0.11168352033E+02 0.10124202320E+02
 0.89187432667E+01 0.77198855796E+01 0.66120427394E+01 0.56521229850E+01 0.48679174670E+01
 0.42636839356E+01 0.38294582095E+01 0.35501269637E+01 0.34123390613E+01 0.34089408739E+01
 0.35410700486E+01 0.38180456575E+01 0.42551406971E+01 0.48690055507E+01 0.56703654692E+01
 0.66545034341E+01 0.77921030642E+01 0.90245469611E+01 0.10264849420E+02 0.11324548879E+02
 0.11910669674E+02 0.11804477698E+02 0.10950940203E+02 0.95004355539E+01 0.77919649318E+01
 0.62725038451E+01 0.53671359560E+01 0.53395586290E+01 0.61977042670E+01 0.76878835816E+01
 0.93826893593E+01 0.87006216673E+01 0.10531822778E+02 0.11615074226E+02 0.11816550161E+02
 0.11240888695E+02 0.10164727974E+02 0.89187432667E+01 0.76886939744E+01 0.65624200631E+01
 0.55966461538E+01 0.48169145589E+01 0.42246857360E+01 0.38077662388E+01 0.35499144600E+01
 0.34378716073E+01 0.34657001046E+01 0.36365687811E+01 0.39620591426E+01 0.44590204654E+01
 0.51437215227E+01 0.60230373589E+01 0.70837602217E+01 0.82835820731E+01 0.95484826739E+01
 0.10752064170E+02 0.11602700673E+02 0.11786476221E+02 0.11117026387E+02 0.96168885680E+01
 0.75471440511E+01 0.53671448432E+01 0.36216955820E+01 0.27799054259E+01 0.30795080418E+01
 0.44412200171E+01 0.64938407490E+01 0.55144534826E+01 0.81827311770E+01 0.10330489759E+02
 0.11581827461E+02 0.11834494018E+02 0.11240888695E+02 0.10124202320E+02 0.88455208387E+01
 0.75962716320E+01 0.64650267717E+01 0.55064536799E+01 0.47426842298E+01 0.41719733176E+01
 0.37800337688E+01 0.35499092619E+01 0.34689379699E+01 0.35328652999E+01 0.37471749554E+01
 0.41256595057E+01 0.46862272389E+01 0.54437064146E+01 0.63995760128E+01 0.75304884566E+01
 0.87801074577E+01 0.10057718858E+02 0.11155840404E+02 0.11712407617E+02 0.11417666539E+02
 0.10136285292E+02 0.79836864446E+01 0.53395661623E+01 0.27799115387E+01 0.92991040858E+00
 0.27466757632E+00 0.99618660120E+00 0.29072537438E+01 0.17717655234E+01 0.48722631909E+01
 0.79036186621E+01 0.10258887606E+02 0.11581827461E+02 0.11816550161E+02 0.11168352033E+02
 0.10003756562E+02 0.87016919344E+01 0.74460472763E+01 0.63235208789E+01 0.53848888138E+01
 0.46478840201E+01 0.41073396118E+01 0.37471457501E+01 0.35501112415E+01 0.35046918710E+01
 0.36087303534E+01 0.38701811721E+01 0.43048136974E+01 0.49309061182E+01 0.57607027634E+01
 0.67888865864E+01 0.79808454665E+01 0.92661133275E+01 0.10524658973E+02 0.11450921469E+02
 0.11652398075E+02 0.10841889971E+02 0.89510089691E+01 0.61977057986E+01 0.30795117131E+01
 0.27466801335E+00 -.15383927991E+01 -.18914762464E+01 -.68572809312E+00 -.17782556922E+01
 0.11681490971E+01 0.46486984424E+01 0.79036186621E+01 0.10330489759E+02 0.11615074226E+02
 0.11759310785E+02 0.11022370775E+02 0.98070068041E+01 0.84924050471E+01 0.72436258792E+01
 0.61432547189E+01 0.52364898225E+01 0.45359244451E+01 0.40329724161E+01 0.37101025951E+01
 0.35504242872E+01 0.35440188017E+01 0.36911443361E+01 0.40022161041E+01 0.44945668980E+01
 0.51860403467E+01 0.60851891311E+01 0.71788231530E+01 0.84206485874E+01 0.97269163325E+01
 0.10924961687E+02 0.11631108917E+02 0.11449258567E+02 0.10131486250E+02 0.76878833334E+01
 0.44412199874E+01 0.99618360188E+00 -.18914833450E+01 -.35244363114E+01 -.34849841037E+01
 -.43291889529E+01 -.21569297893E+01 0.11681490971E+01 0.48722631909E+01 0.81827311770E+01
 0.10531822778E+02 0.11666520973E+02 0.11653467694E+02 0.10802115344E+02 0.95405266894E+01
 0.82251592996E+01 0.69965843731E+01 0.59310648174E+01 0.50668047326E+01 0.44108327254E+01
 0.39513782743E+01 0.36700083075E+01 0.35507001592E+01 0.35856107086E+01 0.37775895439E+01
 0.41393184582E+01 0.46891384727E+01 0.54436186000E+01 0.64066743270E+01 0.75566356234E+01
 0.88358967030E+01 0.10146628493E+02 0.11246001587E+02 0.11708419660E+02 0.11152324899E+02
 0.93826899127E+01 0.64938392827E+01 0.29072508572E+01 -.68573899539E+00 -.34849984349E+01
 -.48119319577E+01 -.43291974537E+01 -.36409144002E+01 -.13756723091E+01 0.19097839739E+01
 0.54579134719E+01 0.85386149262E+01 0.10636489756E+02 0.11545753841E+02 0.11366178537E+02
 0.10422547890E+02 0.91393448607E+01 0.78355378141E+01 0.66331420441E+01 0.56022309754E+01
 0.47751560649E+01 0.41545684925E+01 0.37262383992E+01 0.34709910263E+01 0.33732656687E+01
 0.34263135190E+01 0.36342130774E+01 0.40106625282E+01 0.45745635628E+01 0.53423157434E+01
 0.63165940356E+01 0.74732856321E+01 0.87516252934E+01 0.10048911986E+02 0.11103220250E+02
 0.11491742339E+02 0.10854900454E+02 0.90317841322E+01 0.61538821798E+01 0.26694034155E+01
 -.72799248275E+00 -.32679927375E+01 -.36409292468E+01 -.43292059216E+01 -.32679925184E+01
 -.72799147123E+00 0.26693985010E+01 0.61538758530E+01 0.90317871728E+01 0.10854917048E+02
 0.11491767047E+02 0.11103245356E+02 0.10048935545E+02 0.87516474786E+01 0.74733035080E+01
 0.63166049465E+01 0.53423232274E+01 0.45745729989E+01 0.40106724538E+01 0.36342173844E+01
 0.34263111257E+01 0.33732612461E+01 0.34709862259E+01 0.37262297749E+01 0.41545552891E+01
 0.47751425942E+01 0.56022184246E+01 0.66331250375E+01 0.78355130543E+01 0.91393169422E+01
 0.10422522320E+02 0.11366154782E+02 0.11545730825E+02 0.10636472740E+02 0.85386102370E+01
 0.54579178893E+01 0.19097847259E+01 -.13756824503E+01 -.13044627155E+01 -.31918276777E+01
 -.34850052084E+01 -.21155443043E+01 0.56299567556E+00 0.38955198437E+01 0.71348967316E+01
 0.96542976533E+01 0.11091196628E+02 0.11393743545E+02 0.10778298798E+02 0.96260623356E+01
 0.83322375208E+01 0.70911341670E+01 0.59906693378E+01 0.50808387614E+01 0.43773275655E+01
 0.38726842894E+01 0.35490977953E+01 0.33886090960E+01 0.33798111629E+01 0.35213706989E+01
 0.38224318012E+01 0.42998940283E+01 0.49725483622E+01 0.58518237064E+01 0.69295271989E+01
 0.81658195962E+01 0.94833349893E+01 0.10737971429E+02 0.11574871147E+02 0.11586455908E+02
 0.10492199620E+02 0.82539086348E+01 0.51402113732E+01 0.17096674508E+01 0.20947732783E+01
 -.52196107593E+00 -.19714161067E+01 -.18914974922E+01 -.31374579880E+00 0.23486051380E+01
 0.54408459387E+01 0.82727627683E+01 0.10308774109E+02 0.11283288608E+02 0.11222903179E+02
 0.10388889620E+02 0.91680012838E+01 0.78936591744E+01 0.67012603796E+01 0.56659333923E+01
 0.48261432850E+01 0.41895339702E+01 0.37447492354E+01 0.34734070911E+01 0.33590735534E+01
 0.33928815826E+01 0.35761378865E+01 0.39199785017E+01 0.44420541448E+01 0.51601466590E+01
 0.60824531735E+01 0.71954147816E+01 0.84529034014E+01 0.97725442464E+01 0.10990018000E+02
 0.11738279823E+02 0.11639438379E+02 0.10462421079E+02 0.82259704699E+01 0.52452359186E+01
 0.57626957436E+01 0.30205138042E+01 0.88255169107E+00 -.11638291383E+00 0.27464833130E+00
 0.19376248612E+01 0.44281189965E+01 0.71252863148E+01 0.94238456724E+01 0.10895607445E+02
 0.11375066409E+02 0.10959782432E+02 0.99414565704E+01 0.86903736814E+01 0.74487872676E+01
 0.63157034643E+01 0.53524014265E+01 0.45858804181E+01 0.40166561594E+01 0.36305331409E+01
 0.34093772347E+01 0.33387341986E+01 0.34123442070E+01 0.36338791848E+01 0.40159665393E+01
 0.45764176636E+01 0.53314673635E+01 0.62858647352E+01 0.74211935223E+01 0.86865578380E+01
 0.99968150642E+01 0.11175151328E+02 0.11862529118E+02 0.11719218308E+02 0.10564479694E+02
 0.84649499074E+01 0.89416614408E+01 0.66295457823E+01 0.43788051262E+01 0.27509791125E+01
 0.21698581318E+01 0.27798882248E+01 0.43976944933E+01 0.65779605358E+01 0.87627758561E+01
 0.10451296586E+02 0.11329462719E+02 0.11327146796E+02 0.10600069861E+02 0.94532406656E+01
 0.82061317678E+01 0.70105370117E+01 0.59458387576E+01 0.50590925834E+01 0.43666888633E+01
 0.38633209430E+01 0.35330936316E+01 0.33588384514E+01 0.33283603717E+01 0.34378918488E+01
 0.36930746223E+01 0.41074833941E+01 0.46985259349E+01 0.54804610732E+01 0.64545961691E+01
 0.75984478218E+01 0.88580580032E+01 0.10147800753E+02 0.11289941082E+02 0.11948315016E+02
 0.11826124396E+02 0.10789856104E+02 0.11105655228E+02 0.95922808428E+01 0.77394509237E+01
 0.60136458032E+01 0.48788192047E+01 0.46459927462E+01 0.53671200176E+01 0.68191404240E+01
 0.85841053704E+01 0.10188566807E+02 0.11245701339E+02 0.11553148820E+02 0.11124722706E+02
 0.10157612574E+02 0.89498963972E+01 0.77287527797E+01 0.65915069371E+01 0.56020141199E+01
 0.47937666110E+01 0.41740381348E+01 0.37332194768E+01 0.34547999187E+01 0.33231306562E+01
 0.33283651033E+01 0.34689658761E+01 0.37520746919E+01 0.41916630933E+01 0.48042181368E+01
 0.56017210170E+01 0.65822569287E+01 0.77202784660E+01 0.89605411470E+01 0.10219364037E+02
 0.11330138676E+02 0.11989887177E+02 0.11945958776E+02 0.12052495739E+02 0.11460016159E+02
 0.10328107562E+02 0.89583207004E+01 0.77433996194E+01 0.70441503170E+01 0.70669451351E+01
 0.77919419751E+01 0.89827856888E+01 0.10271670829E+02 0.11281847804E+02 0.11740345424E+02
 0.11546252467E+02 0.10780836150E+02 0.96638272407E+01 0.84505605433E+01 0.72722350453E+01
 0.62035744692E+01 0.52932694478E+01 0.45627958042E+01 0.40121969133E+01 0.36291029558E+01
 0.33973131901E+01 0.33030556209E+01 0.33387481755E+01 0.35047211712E+01 0.38091116970E+01
 0.42657534588E+01 0.48897594882E+01 0.56906768185E+01 0.66637821727E+01 0.77816119135E+01
 0.89893890414E+01 0.10207596519E+02 0.11290768694E+02 0.11975873999E+02 0.11891713354E+02
 0.12112307588E+02 0.11790582396E+02 0.11049005120E+02 0.10143783827E+02 0.93865676048E+01
 0.90386097506E+01 0.92174458935E+01 0.98552016887E+01 0.10725660833E+02 0.11526253045E+02
 0.11979756609E+02 0.11918571998E+02 0.11327117115E+02 0.10334467030E+02 0.91600902376E+01
 0.79713257697E+01 0.68505226549E+01 0.58574975905E+01 0.50271828731E+01 0.43711780170E+01
 0.38843124457E+01 0.35528534485E+01 0.33616207297E+01 0.32988782531E+01 0.33590948788E+01
 0.35440462190E+01 0.38623530649E+01 0.43272052552E+01 0.49519769793E+01 0.57437822974E+01
 0.66956741113E+01 0.77794951184E+01 0.89425899130E+01 0.10111253590E+02 0.11167188145E+02
 0.10956863827E+02 0.11723220878E+02 0.12091137666E+02 0.12034797915E+02 0.11658598658E+02
 0.11165680116E+02 0.10786871814E+02 0.10694975169E+02 0.10938953339E+02 0.11425986447E+02