    2    2   15    1
  0.1529437E+02  0.3691622E-09  0.3691622E-09  0.3691622E-09  0.5000000E-15
  1.000000000000000E-004
  CAR 
 unknown system                          
      8    126      8
 
  0.0000000E+00  0.0000000E+00  0.0000000E+00  0.7513148E-03
    1       -4.615897   1.000000
    2        6.180152   1.000000
    3        6.297717   1.000000
    4        6.297717   1.000000
    5       10.516031   0.000000
    6       16.753592   0.000000
    7       17.365591   0.000000
    8       17.365594   0.000000
 
  0.9090909E-01 -0.1249769E-17  0.1249769E-17  0.6010518E-02
    1       -4.382479   1.000000
    2        5.426550   1.000000
    3        6.252489   1.000000
    4        7.460016   1.000000
    5       10.998263   0.000000
    6       15.526461   0.000000
    7       16.599785   0.000000
    8       17.375957   0.000000
 
  0.1818182E+00 -0.2499539E-17  0.2499539E-17  0.6010518E-02
    1       -3.684115   1.000000
    2        5.046590   1.000000
    3        6.250596   1.000000
    4        8.992771   0.787212
    5       12.282493   0.000000
    6       13.413861   0.000000
    7       13.810107   0.000000
    8       15.823548   0.000000
 
  0.2727273E+00 -0.2456599E-16  0.2456599E-16  0.6010518E-02
    1       -2.526811   1.000000
    2        5.097548   1.000000
    3        6.475516   1.000000
    4        9.301892   0.082412
    5       11.373724   0.000000
    6       12.086317   0.000000
    7       13.589347   0.000000
    8       14.527219   0.000000
 
  0.3636364E+00 -0.4999077E-17  0.4999077E-17  0.6010518E-02
    1       -0.921918   1.000000
    2        5.519051   1.000000
    3        6.514314   1.000000
    4        6.986607   1.000000
    5        9.645535   0.000067
    6       12.038069   0.000000
    7       13.679470   0.000000
    8       13.822527   0.000000
 
  0.4545455E+00 -0.5101859E-16 -0.4492561E-17  0.6010518E-02
    1        1.100791   1.000000
    2        3.608486   1.000000
    3        6.475225   1.000000
    4        7.623759   1.000000
    5        8.036075   1.000000
    6       10.612729   0.000000
    7       13.522340   0.000000
    8       14.500160   0.000000
 
  0.9090909E-01  0.9090909E-01  0.6302053E-17  0.6010518E-02
    1       -3.782106   1.000000
    2        5.358536   1.000000
    3        7.010754   1.000000
    4        8.065125   1.000000
    5       11.828786   0.000000
    6       13.849519   0.000000
    7       13.982000   0.000000
    8       16.349670   0.000000
 
  0.1818182E+00  0.9090909E-01 -0.1326486E-16  0.1202104E-01
    1       -2.721398   1.000000
    2        5.386717   1.000000
    3        7.487309   1.000000
    4        9.213574   0.222276
    5       11.013758   0.000000
    6       11.543615   0.000000
    7       13.412001   0.000000
    8       14.630515   0.000000
 
  0.2727273E+00  0.9090909E-01  0.1260411E-16  0.1202104E-01
    1       -1.210316   1.000000
    2        5.774002   1.000000
    3        7.110729   1.000000
    4        7.844720   1.000000
    5        9.285729   0.101201
    6       12.036892   0.000000
    7       12.496329   0.000000
    8       13.940865   0.000000
 
  0.3636364E+00  0.9090909E-01  0.3112467E-17  0.1202104E-01
    1        0.729052   1.000000
    2        4.241000   1.000000
    3        6.587409   1.000000
    4        6.983897   1.000000
    5        8.783373   0.988620
    6       10.864733   0.000000
    7       12.813384   0.000000
    8       14.941190   0.000000
 
  0.4545455E+00  0.9090909E-01 -0.2652972E-16  0.1202104E-01
    1        1.646445   1.000000
    2        3.160902   1.000000
    3        5.607772   1.000000
    4        7.430899   1.000000
    5        8.553732   0.999952
    6       11.196459   0.000000
    7       12.557765   0.000000
    8       15.543231   0.000000
 
 -0.4545455E+00  0.9090909E-01 -0.1715602E-16  0.1202104E-01
    1       -0.443121   1.000000
    2        4.508290   1.000000
    3        5.945942   1.000000
    4        7.008184   1.000000
    5        9.638996   0.000081
    6       12.330598   0.000000
    7       13.012464   0.000000
    8       14.800448   0.000000
 
 -0.3636364E+00  0.9090909E-01  0.3189586E-17  0.1202104E-01
    1       -2.138569   1.000000
    2        3.939388   1.000000
    3        6.431308   1.000000
    4        8.916592   0.909136
    5       11.260984   0.000000
    6       12.506124   0.000000
    7       13.360430   0.000000
    8       14.763213   0.000000
 
 -0.2727273E+00  0.9090909E-01  0.1302975E-17  0.1202104E-01
    1       -3.390559   1.000000
    2        3.771026   1.000000
    3        6.201402   1.000000
    4        9.874733   0.000000
    5       12.567101   0.000000
    6       13.061804   0.000000
    7       13.677938   0.000000
    8       15.287734   0.000000
 
 -0.1818182E+00  0.9090909E-01  0.7590381E-17  0.1202104E-01
    1       -4.185867   1.000000
    2        4.028321   1.000000
    3        6.271900   1.000000
    4        8.426476   0.999999
    5       12.093016   0.000000
    6       14.038025   0.000000
    7       15.965699   0.000000
    8       17.041269   0.000000
 
 -0.9090909E-01  0.9090909E-01  0.1699965E-18  0.3005259E-02
    1       -4.517431   1.000000
    2        4.680059   1.000000
    3        6.388795   1.000000
    4        7.441635   1.000000
    5       11.131102   0.000000
    6       15.239919   0.000000
    7       16.595319   0.000000
    8       18.884917   0.000000
 
  0.1818182E+00  0.1818182E+00  0.1260411E-16  0.6010518E-02
    1       -1.306632   1.000000
    2        5.768783   1.000000
    3        7.740915   1.000000
    4        7.851459   1.000000
    5        9.489738   0.003291
    6       11.333482   0.000000
    7       12.918490   0.000000
    8       13.069219   0.000000
 
  0.2727273E+00  0.1818182E+00  0.3086804E-16  0.1202104E-01
    1        0.541699   1.000000
    2        5.039828   1.000000
    3        5.979503   1.000000
    4        6.522018   1.000000
    5        9.774823   0.000001
    6       11.518608   0.000000
    7       12.207410   0.000000
    8       13.592431   0.000000
 
  0.3636364E+00  0.1818182E+00 -0.2652972E-16  0.1202104E-01
    1        2.302450   1.000000
    2        2.956187   1.000000
    3        4.476536   1.000000
    4        7.420492   1.000000
    5        9.086694   0.552766
    6       11.143227   0.000000
    7       12.808701   0.000000
    8       15.929508   0.000000
 
  0.4545455E+00  0.1818182E+00 -0.6607546E-18  0.1202104E-01
    1        0.222986   1.000000
    2        3.259733   1.000000
    3        5.571348   1.000000
    4        7.472071   1.000000
    5        9.366173   0.032623
    6       11.370888   0.000000
    7       14.105093   0.000000
    8       15.672268   0.000000
 
 -0.4545455E+00  0.1818182E+00 -0.2664766E-16  0.1202104E-01
    1       -1.558617   1.000000
    2        2.565157   1.000000
    3        6.876668   1.000000
    4        8.554499   0.999951
    5       10.466315   0.000000
    6       12.445792   0.000000
    7       13.276851   0.000000
    8       15.910952   0.000000
 
 -0.3636364E+00  0.1818182E+00  0.1518076E-16  0.1202104E-01
    1       -2.902764   1.000000
    2        2.295772   1.000000
    3        6.601138   1.000000
    4       10.445494   0.000000
    5       11.412901   0.000000
    6       12.607123   0.000000
    7       14.429426   0.000000
    8       15.952482   0.000000
 
 -0.2727273E+00  0.1818182E+00 -0.1322630E-16  0.1202104E-01
    1       -3.793461   1.000000
    2        2.463840   1.000000
    3        6.619677   1.000000
    4        9.128484   0.435319
    5       12.514899   0.000000
    6       13.934453   0.000000
    7       14.915832   0.000000
    8       16.537283   0.000000
 
 -0.1818182E+00  0.1818182E+00  0.3399929E-18  0.3005259E-02
    1       -4.222408   1.000000
    2        3.058245   1.000000
    3        6.662052   1.000000
    4        8.218074   1.000000
    5       12.746138   0.000000
    6       13.587630   0.000000
    7       15.279999   0.000000
    8       19.322468   0.000000
 
  0.2727273E+00  0.2727273E+00 -0.6379172E-17  0.6010518E-02
    1        2.579744   1.000000
    2        3.359525   1.000000
    3        3.553130   1.000000
    4        7.412138   1.000000
    5        9.503763   0.002428
    6       10.573199   0.000000
    7       13.992923   0.000000
    8       14.831000   0.000000
 
  0.3636364E+00  0.2727273E+00 -0.3602136E-16  0.1202104E-01
    1        1.070818   1.000000
    2        2.090896   1.000000
    3        5.387466   1.000000
    4        8.009210   1.000000
    5        9.018761   0.730065
    6       10.706398   0.000000
    7       15.381832   0.000000
    8       16.205868   0.000000
 
  0.4545455E+00  0.2727273E+00  0.2520821E-16  0.1202104E-01
    1       -0.790231   1.000000
    2        1.286232   1.000000
    3        7.519047   1.000000
    4        8.326125   1.000000
    5        9.496879   0.002822
    6       12.061675   0.000000
    7       13.971807   0.000000
    8       15.853245   0.000000
 
 -0.4545455E+00  0.2727273E+00  0.1937185E-16  0.1202104E-01
    1       -2.222994   1.000000
    2        0.919042   1.000000
    3        7.218672   1.000000
    4       10.083224   0.000000
    5       10.971256   0.000000
    6       12.508479   0.000000
    7       14.187205   0.000000
    8       14.939670   0.000000
 
 -0.3636364E+00  0.2727273E+00 -0.1702881E-16  0.1202104E-01
    1       -3.206945   1.000000
    2        0.997945   1.000000
    3        7.163233   1.000000
    4        9.809850   0.000000
    5       11.123053   0.000000
    6       13.705439   0.000000
    7       15.702564   0.000000
    8       16.333168   0.000000
 
 -0.2727273E+00  0.2727273E+00 -0.1434744E-16  0.3005259E-02
    1       -3.732049   1.000000
    2        1.518873   1.000000
    3        7.117140   1.000000
    4        8.876980   0.946904
    5       12.080976   0.000000
    6       13.927437   0.000000
    7       14.879075   0.000000
    8       19.065947   0.000000
 
  0.3636364E+00  0.3636364E+00  0.2520821E-16  0.6010518E-02
    1        0.156820   1.000000
    2        0.165615   1.000000
    3        8.021188   1.000000
    4        8.309637   1.000000
    5        8.807266   0.982506
    6       11.937880   0.000000
    7       14.519919   0.000000
    8       15.310923   0.000000
 
  0.4545455E+00  0.3636364E+00 -0.3979458E-16  0.1202104E-01
    1       -1.354960   1.000000
    2       -0.304353   1.000000
    3        8.019650   1.000000
    4        8.989386   0.794097
    5       11.132144   0.000000
    6       12.789318   0.000000
    7       14.022839   0.000000
    8       14.071283   0.000000
 
 -0.4545455E+00  0.3636364E+00 -0.1340671E-16  0.1202104E-01
    1       -2.429061   1.000000
    2       -0.318132   1.000000
    3        7.890409   1.000000
    4        9.873736   0.000000
    5       10.597175   0.000000
    6       12.560936   0.000000
    7       15.745141   0.000000
    8       16.489568   0.000000
 
 -0.3636364E+00  0.3636364E+00  0.6799859E-18  0.3005259E-02
    1       -3.048512   1.000000
    2        0.118917   1.000000
    3        7.753569   1.000000
    4        9.610373   0.000178
    5       10.737735   0.000000
    6       12.650660   0.000000
    7       17.181071   0.000000
    8       18.882028   0.000000
 
  0.4545455E+00  0.4545455E+00 -0.4928622E-16  0.6010518E-02
    1       -1.464326   1.000000
    2       -1.463692   1.000000
    3        8.784374   0.988408
    4        8.807655   0.982387
    5       11.451972   0.000000
    6       11.574642   0.000000
    7       15.676521   0.000000
    8       16.456433   0.000000
 
 -0.4545455E+00  0.4545455E+00 -0.2152036E-17  0.3005259E-02
    1       -2.175072   1.000000
    2       -1.116729   1.000000
    3        8.570481   0.999922
    4        9.566244   0.000560
    5       10.478530   0.000000
    6       11.494201   0.000000
    7       18.786411   0.000000
    8       18.823168   0.000000
 
  0.9090909E-01  0.9090909E-01  0.9090909E-01  0.6010518E-02
    1       -3.488164   1.000000
    2        3.754292   1.000000
    3        7.276178   1.000000
    4        8.826036   0.975910
    5       12.812184   0.000000
    6       13.422567   0.000000
    7       13.716641   0.000000
    8       15.462340   0.000000
 
  0.1818182E+00  0.9090909E-01  0.9090909E-01  0.1202104E-01
    1       -2.332040   1.000000
    2        3.856892   1.000000
    3        7.785795   1.000000
    4        9.346404   0.044212
    5       10.833164   0.000000
    6       11.294122   0.000000
    7       14.263443   0.000000
    8       15.142999   0.000000
 
  0.2727273E+00  0.9090909E-01  0.9090909E-01  0.1202104E-01
    1       -0.729038   1.000000
    2        4.365985   1.000000
    3        6.608330   1.000000
    4        7.901355   1.000000
    5        9.348842   0.042624
    6       12.750893   0.000000
    7       13.350485   0.000000
    8       14.144345   0.000000
 
  0.3636364E+00  0.9090909E-01  0.9090909E-01  0.1202104E-01
    1        1.290821   1.000000
    2        3.779821   1.000000
    3        5.356883   1.000000
    4        6.640973   1.000000
    5        9.593845   0.000277
    6       11.748539   0.000000
    7       13.732050   0.000000
    8       14.432758   0.000000
 
 -0.9090909E-01  0.9090909E-01  0.9090909E-01  0.3005259E-02
    1       -4.419081   1.000000
    2        4.361891   1.000000
    3        5.600979   1.000000
    4        8.437855   0.999999
    5       11.590105   0.000000
    6       14.040920   0.000000
    7       17.527026   0.000000
    8       18.080261   0.000000
 
  0.1818182E+00  0.1818182E+00  0.9090909E-01  0.6010518E-02
    1       -0.824568   1.000000
    2        4.302077   1.000000
    3        7.350030   1.000000
    4        7.432981   1.000000
    5        9.976009   0.000000
    6       11.865553   0.000000
    7       13.989656   0.000000
    8       14.228762   0.000000
 
  0.2727273E+00  0.1818182E+00  0.9090909E-01  0.1202104E-01
    1        1.108459   1.000000
    2        4.556430   1.000000
    3        5.191583   1.000000
    4        5.637444   1.000000
    5       10.739734   0.000000
    6       12.683320   0.000000
    7       13.224391   0.000000
    8       14.140194   0.000000
 
  0.3636364E+00  0.1818182E+00  0.9090909E-01  0.1202104E-01
    1        2.025499   1.000000
    2        3.463773   1.000000
    3        4.189913   1.000000
    4        6.433774   1.000000
    5       10.372282   0.000000
    6       12.394102   0.000000
    7       13.511552   0.000000
    8       15.246334   0.000000
 
  0.4545455E+00  0.1818182E+00  0.9090909E-01  0.1202104E-01
    1       -0.058794   1.000000
    2        3.027384   1.000000
    3        6.265619   1.000000
    4        7.863345   1.000000
    5        9.715262   0.000008
    6       12.560056   0.000000
    7       13.532405   0.000000
    8       14.972102   0.000000
 
 -0.4545455E+00  0.1818182E+00  0.9090909E-01  0.1202104E-01
    1       -1.750227   1.000000
    2        2.413041   1.000000
    3        8.211913   1.000000
    4        9.207780   0.234670
    5       10.578086   0.000000
    6       11.559312   0.000000
    7       13.110431   0.000000
    8       15.007045   0.000000
 
 -0.3636364E+00  0.1818182E+00  0.9090909E-01  0.6010518E-02
    1       -2.999651   1.000000
    2        2.226498   1.000000
    3        7.716083   1.000000
    4        9.456711   0.006500
    5       12.085494   0.000000
    6       12.952265   0.000000
    7       14.121997   0.000000
    8       14.827298   0.000000
 
 -0.1818182E+00  0.1818182E+00  0.9090909E-01  0.6010518E-02
    1       -4.124439   1.000000
    2        3.074053   1.000000
    3        5.546442   1.000000
    4        9.414787   0.014360
    5       12.441465   0.000000
    6       12.996279   0.000000
    7       16.451015   0.000000
    8       18.797781   0.000000
 
 -0.9090909E-01  0.1818182E+00  0.9090909E-01  0.6010518E-02
    1       -3.989763   1.000000
    2        3.728051   1.000000
    3        5.176420   1.000000
    4        9.773833   0.000001
    5       12.544582   0.000000
    6       12.821131   0.000000
    7       15.783881   0.000000
    8       17.701385   0.000000
 
  0.2727273E+00  0.2727273E+00  0.9090909E-01  0.6010518E-02
    1        2.799326   1.000000
    2        2.993094   1.000000
    3        3.631777   1.000000
    4        6.361324   1.000000
    5       10.932979   0.000000
    6       11.864987   0.000000
    7       14.680330   0.000000
    8       14.874252   0.000000
 
  0.3636364E+00  0.2727273E+00  0.9090909E-01  0.1202104E-01
    1        0.796184   1.000000
    2        1.829057   1.000000
    3        6.091902   1.000000
    4        7.801980   1.000000
    5       10.323582   0.000000
    6       11.566658   0.000000
    7       14.218059   0.000000
    8       15.397621   0.000000
 
  0.4545455E+00  0.2727273E+00  0.9090909E-01  0.1202104E-01
    1       -0.978819   1.000000
    2        1.112267   1.000000
    3        8.632233   0.999590
    4        9.096344   0.525680
    5       10.405249   0.000000
    6       11.808531   0.000000
    7       12.447125   0.000000
    8       14.136856   0.000000
 
 -0.4545455E+00  0.2727273E+00  0.9090909E-01  0.6010518E-02
    1       -2.318738   1.000000
    2        0.834570   1.000000
    3        8.325464   1.000000
    4       10.111134   0.000000
    5       11.098736   0.000000
    6       12.440906   0.000000
    7       13.596578   0.000000
    8       13.928311   0.000000
 
 -0.2727273E+00  0.2727273E+00  0.9090909E-01  0.6010518E-02
    1       -3.634802   1.000000
    2        1.588160   1.000000
    3        5.951814   1.000000
    4       10.152805   0.000000
    5       10.942442   0.000000
    6       15.039792   0.000000
    7       15.134265   0.000000
    8       18.804945   0.000000
 
 -0.1818182E+00  0.2727273E+00  0.9090909E-01  0.1202104E-01
    1       -3.598468   1.000000
    2        2.546003   1.000000
    3        5.126853   1.000000
    4       10.757244   0.000000
    5       11.020582   0.000000
    6       14.335213   0.000000
    7       15.310355   0.000000
    8       17.223266   0.000000
 
 -0.9090909E-01  0.2727273E+00  0.9090909E-01  0.6010518E-02
    1       -3.098245   1.000000
    2        3.536380   1.000000
    3        5.092223   1.000000
    4       10.778389   0.000000
    5       11.450227   0.000000
    6       12.886290   0.000000
    7       14.473303   0.000000
    8       15.585364   0.000000
 
  0.3636364E+00  0.3636364E+00  0.9090909E-01  0.6010518E-02
    1       -0.023755   1.000000
    2       -0.020860   1.000000
    3        8.773957   0.990462
    4        9.128519   0.435220
    5       10.383740   0.000000
    6       11.477063   0.000000
    7       12.888718   0.000000
    8       13.447402   0.000000
 
  0.4545455E+00  0.3636364E+00  0.9090909E-01  0.6010518E-02
    1       -1.448865   1.000000
    2       -0.395075   1.000000
    3        9.092778   0.535710
    4        9.976527   0.000000
    5       10.992284   0.000000
    6       11.765142   0.000000
    7       13.342838   0.000000
    8       13.419765   0.000000
 
 -0.3636364E+00  0.3636364E+00  0.9090909E-01  0.6010518E-02
    1       -2.952416   1.000000
    2        0.203603   1.000000
    3        6.582153   1.000000
    4        9.593606   0.000278
    5       10.903552   0.000000
    6       13.890039   0.000000
    7       17.268970   0.000000
    8       18.577401   0.000000
 
 -0.2727273E+00  0.3636364E+00  0.9090909E-01  0.1202104E-01
    1       -3.013816   1.000000
    2        1.151259   1.000000
    3        5.599259   1.000000
    4        9.582473   0.000372
    5       11.540456   0.000000
    6       14.600891   0.000000
    7       16.203269   0.000000
    8       16.641109   0.000000
 
 -0.1818182E+00  0.3636364E+00  0.9090909E-01  0.1202104E-01
    1       -2.612677   1.000000
    2        2.459309   1.000000
    3        5.089446   1.000000
    4        9.875675   0.000000
    5       11.052294   0.000000
    6       13.317349   0.000000
    7       15.331263   0.000000
    8       16.397576   0.000000
 
 -0.9090909E-01  0.3636364E+00  0.9090909E-01  0.6010518E-02
    1       -1.752720   1.000000
    2        3.784766   1.000000
    3        5.390981   1.000000
    4        8.387950   1.000000
    5       10.490449   0.000000
    6       13.165336   0.000000
    7       14.349331   0.000000
    8       14.606306   0.000000
 
 -0.4545455E+00  0.4545455E+00  0.9090909E-01  0.6010518E-02
    1       -2.080851   1.000000
    2       -1.025723   1.000000
    3        7.405205   1.000000
    4        8.411380   1.000000
    5       11.764287   0.000000
    6       12.760450   0.000000
    7       18.324341   0.000000
    8       18.421932   0.000000
 
 -0.3636364E+00  0.4545455E+00  0.9090909E-01  0.1202104E-01
    1       -2.238953   1.000000
    2       -0.142724   1.000000
    3        6.313365   1.000000
    4        8.318163   1.000000
    5       12.284401   0.000000
    6       13.987302   0.000000
    7       15.620785   0.000000
    8       17.435950   0.000000
 
 -0.2727273E+00  0.4545455E+00  0.9090909E-01  0.1202104E-01
    1       -1.936635   1.000000
    2        1.162014   1.000000
    3        5.635996   1.000000
    4        8.580510   0.999897
    5       10.869719   0.000000
    6       13.966321   0.000000
    7       15.215906   0.000000
    8       16.766473   0.000000
 
 -0.1818182E+00  0.4545455E+00  0.9090909E-01  0.1202104E-01
    1       -1.176890   1.000000
    2        2.814830   1.000000
    3        5.452526   1.000000
    4        7.965229   1.000000
    5        9.261861   0.134371
    6       13.227473   0.000000
    7       15.014414   0.000000
    8       15.848389   0.000000
 
 -0.9090909E-01  0.4545455E+00  0.9090909E-01  0.6010518E-02
    1        0.030980   1.000000
    2        4.403353   1.000000
    3        5.477141   1.000000
    4        6.072661   1.000000
    5        9.664829   0.000038
    6       11.882993   0.000000
    7       12.801925   0.000000
    8       16.207972   0.000000
 
 -0.4545455E+00 -0.4545455E+00  0.9090909E-01  0.6010518E-02
    1       -1.279942   1.000000
    2       -1.278028   1.000000
    3        7.219250   1.000000
    4        7.230084   1.000000
    5       12.859071   0.000000
    6       13.435819   0.000000
    7       15.403432   0.000000
    8       17.442396   0.000000
 
 -0.3636364E+00 -0.4545455E+00  0.9090909E-01  0.1202104E-01
    1       -1.074828   1.000000
    2       -0.035744   1.000000
    3        6.430738   1.000000
    4        7.420222   1.000000
    5       10.749628   0.000000
    6       14.689175   0.000000
    7       15.106192   0.000000
    8       15.891524   0.000000
 
 -0.2727273E+00 -0.4545455E+00  0.9090909E-01  0.1202104E-01
    1       -0.415543   1.000000
    2        1.620191   1.000000
    3        6.065366   1.000000
    4        7.629164   1.000000
    5        8.155437   1.000000
    6       13.081602   0.000000
    7       15.831042   0.000000
    8       17.019676   0.000000
 
 -0.1818182E+00 -0.4545455E+00  0.9090909E-01  0.1202104E-01
    1        0.688741   1.000000
    2        3.575502   1.000000
    3        5.060719   1.000000
    4        6.234551   1.000000
    5        8.830034   0.974263
    6       11.563158   0.000000
    7       13.789246   0.000000
    8       17.086101   0.000000
 
 -0.9090909E-01 -0.4545455E+00  0.9090909E-01  0.6010518E-02
    1        2.112489   1.000000
    2        2.787748   1.000000
    3        5.650890   1.000000
    4        7.064393   1.000000
    5        8.714500   0.997149
    6       11.316628   0.000000
    7       11.394699   0.000000
    8       16.501715   0.000000
 
 -0.3636364E+00 -0.3636364E+00  0.9090909E-01  0.6010518E-02
    1        0.515554   1.000000
    2        0.530653   1.000000
    3        6.881070   1.000000
    4        6.920309   1.000000
    5        7.778758   1.000000
    6       13.017165   0.000000
    7       16.336919   0.000000
    8       17.318749   0.000000
 
 -0.2727273E+00 -0.3636364E+00  0.9090909E-01  0.1202104E-01
    1        1.520830   1.000000
    2        2.507968   1.000000
    3        4.856004   1.000000
    4        6.914716   1.000000
    5        7.836583   1.000000
    6       11.382318   0.000000
    7       15.207594   0.000000
    8       16.714626   0.000000
 
 -0.1818182E+00 -0.3636364E+00  0.9090909E-01  0.1202104E-01
    1        2.250304   1.000000
    2        3.096854   1.000000
    3        4.901450   1.000000
    4        7.259884   1.000000
    5        8.578761   0.999902
    6       10.601301   0.000000
    7       12.350480   0.000000
    8       15.625336   0.000000
 
 -0.9090909E-01 -0.3636364E+00  0.9090909E-01  0.6010518E-02
    1        0.351277   1.000000
    2        4.867400   1.000000
    3        7.004358   1.000000
    4        7.955109   1.000000
    5        7.963405   1.000000
    6       10.711969   0.000000
    7       11.647080   0.000000
    8       14.299072   0.000000
 
 -0.2727273E+00 -0.2727273E+00  0.9090909E-01  0.6010518E-02
    1        2.198638   1.000000
    2        3.880797   1.000000
    3        3.980282   1.000000
    4        7.692240   1.000000
    5        8.183021   1.000000
    6       10.341913   0.000000
    7       13.486660   0.000000
    8       14.435419   0.000000
 
 -0.1818182E+00 -0.2727273E+00  0.9090909E-01  0.1202104E-01
    1        0.161580   1.000000
    2        5.642093   1.000000
    3        6.496094   1.000000
    4        7.659029   1.000000
    5        8.829078   0.974665
    6       10.666285   0.000000
    7       11.552815   0.000000
    8       12.999587   0.000000
 
 -0.9090909E-01 -0.2727273E+00  0.9090909E-01  0.6010518E-02
    1       -1.500053   1.000000
    2        6.937641   1.000000
    3        7.741437   1.000000
    4        7.932297   1.000000
    5        9.213036   0.223411
    6       11.381360   0.000000
    7       11.774470   0.000000
    8       13.079558   0.000000
 
 -0.1818182E+00 -0.1818182E+00  0.9090909E-01  0.6010518E-02
    1       -1.596793   1.000000
    2        7.236627   1.000000
    3        8.156263   1.000000
    4        8.258335   1.000000
    5        9.156014   0.360353
    6       10.648599   0.000000
    7       12.127810   0.000000
    8       12.289101   0.000000
 
 -0.9090909E-01 -0.1818182E+00  0.9090909E-01  0.6010518E-02
    1       -2.916484   1.000000
    2        6.733746   1.000000
    3        7.468573   1.000000
    4        8.556005   0.999949
    5       11.299730   0.000000
    6       11.791390   0.000000
    7       12.406055   0.000000
    8       14.143257   0.000000
 
 -0.9090909E-01 -0.9090909E-01  0.9090909E-01  0.1502630E-02
    1       -3.880213   1.000000
    2        6.856488   1.000000
    3        6.922066   1.000000
    4        6.922067   1.000000
    5       11.254417   0.000000
    6       14.047379   0.000000
    7       14.360529   0.000000
    8       16.413950   0.000000
 
  0.1818182E+00  0.1818182E+00  0.1818182E+00  0.6010518E-02
    1       -0.153061   1.000000
    2        2.945938   1.000000
    3        7.067228   1.000000
    4        7.116543   1.000000
    5       10.629185   0.000000
    6       12.427408   0.000000
    7       13.833907   0.000000
    8       14.466277   0.000000
 
  0.2727273E+00  0.1818182E+00  0.1818182E+00  0.1202104E-01
    1        1.856579   1.000000
    2        3.816595   1.000000
    3        4.453869   1.000000
    4        5.362229   1.000000
    5       11.673055   0.000000
    6       13.778992   0.000000
    7       13.906970   0.000000
    8       14.506267   0.000000
 
 -0.1818182E+00  0.1818182E+00  0.1818182E+00  0.3005259E-02
    1       -3.831040   1.000000
    2        2.834542   1.000000
    3        4.419035   1.000000
    4       10.838121   0.000000
    5       10.912039   0.000000
    6       13.899797   0.000000
    7       17.703682   0.000000
    8       18.008012   0.000000
 
  0.2727273E+00  0.2727273E+00  0.1818182E+00  0.6010518E-02
    1        2.755193   1.000000
    2        2.794280   1.000000
    3        4.324744   1.000000
    4        5.273927   1.000000
    5       12.362767   0.000000
    6       13.161807   0.000000
    7       14.376597   0.000000
    8       15.233020   0.000000
 
  0.3636364E+00  0.2727273E+00  0.1818182E+00  0.6010518E-02
    1        0.704029   1.000000
    2        1.740426   1.000000
    3        6.927303   1.000000
    4        6.943502   1.000000
    5       11.448767   0.000000
    6       12.366215   0.000000
    7       13.427133   0.000000
    8       14.072951   0.000000
 
 -0.2727273E+00  0.2727273E+00  0.1818182E+00  0.6010518E-02
    1       -3.343642   1.000000
    2        1.751017   1.000000
    3        4.413370   1.000000
    4        9.326724   0.058836
    5       11.986695   0.000000
    6       15.596543   0.000000
    7       16.749166   0.000000
    8       18.349342   0.000000
 
 -0.1818182E+00  0.2727273E+00  0.1818182E+00  0.6010518E-02
    1       -3.209535   1.000000
    2        2.384901   1.000000
    3        4.046137   1.000000
    4        9.441050   0.008822
    5       12.200783   0.000000
    6       14.982644   0.000000
    7       15.427110   0.000000
    8       18.350744   0.000000
 
 -0.3636364E+00  0.3636364E+00  0.1818182E+00  0.6010518E-02
    1       -2.665024   1.000000
    2        0.447046   1.000000
    3        4.964505   1.000000
    4        7.965728   1.000000
    5       12.843447   0.000000
    6       15.684454   0.000000
    7       17.517251   0.000000
    8       18.166519   0.000000
 
 -0.2727273E+00  0.3636364E+00  0.1818182E+00  0.1202104E-01
    1       -2.629035   1.000000
    2        1.401869   1.000000
    3        4.106682   1.000000
    4        8.004523   1.000000
    5       13.003213   0.000000
    6       14.877849   0.000000
    7       17.221573   0.000000
    8       17.942955   0.000000
 