       N       E                     dE             d eps       ncg     rms          rms(c)
DAV:   1    -0.102502261061E+02   -0.10250E+02   -0.33058E-06  1288   0.178E-02    0.521E-04
DAV:   2    -0.102502261329E+02   -0.26836E-07   -0.26612E-07  1288   0.481E-03
   1 F= -.10250226E+02 E0= -.10242380E+02  d E =-.102502E+02
