       N       E                     dE             d eps       ncg     rms          rms(c)
DAV:   1     0.180819724892E+01    0.18082E+01   -0.27422E+03  2024   0.576E+02
DAV:   2    -0.101199538552E+02   -0.11928E+02   -0.11534E+02  2984   0.666E+01
DAV:   3    -0.102581280025E+02   -0.13817E+00   -0.13745E+00  2864   0.847E+00
DAV:   4    -0.102584491823E+02   -0.32118E-03   -0.32116E-03  2968   0.403E-01
DAV:   5    -0.102584496269E+02   -0.44463E-06   -0.44511E-06  2832   0.988E-03    0.150E+00
DAV:   6    -0.102539881808E+02    0.44614E-02   -0.17877E-03  2576   0.328E-01    0.938E-01
DAV:   7    -0.102502403747E+02    0.37478E-02   -0.52880E-03  2320   0.577E-01    0.333E-02
DAV:   8    -0.102502256114E+02    0.14763E-04   -0.83922E-05  1536   0.795E-02
   1 F= -.10250226E+02 E0= -.10242380E+02  d E =-.102502E+02
