 vasp.5.4.4.18Apr17-6-g9f103f2a35 (build Dec 09 2018 21:25:21) complex          
  
 executed on IFC18.0.1.163_CrayMP date 2019.03.18  04:43:06
 running on    8 total cores
 distrk:  each k-point on    8 cores,    1 groups
 distr:  one band on NCORES_PER_BAND=   1 cores,    8 groups


--------------------------------------------------------------------------------------------------------


 INCAR:
 POTCAR:   PAW_PBE Si 05Jan2001                   

 ----------------------------------------------------------------------------- 
|                                                                             |
|           W    W    AA    RRRRR   N    N  II  N    N   GGGG   !!!           |
|           W    W   A  A   R    R  NN   N  II  NN   N  G    G  !!!           |
|           W    W  A    A  R    R  N N  N  II  N N  N  G       !!!           |
|           W WW W  AAAAAA  RRRRR   N  N N  II  N  N N  G  GGG   !            |
|           WW  WW  A    A  R   R   N   NN  II  N   NN  G    G                |
|           W    W  A    A  R    R  N    N  II  N    N   GGGG   !!!           |
|                                                                             |
|      For optimal performance we recommend to set                            |
|        NCORE= 4 - approx SQRT( number of cores)                             |
|      NCORE specifies how many cores store one orbital (NPAR=cpu/NCORE).     |
|      This setting can  greatly improve the performance of VASP for DFT.     |
|      The default,   NCORE=1            might be grossly inefficient         |
|      on modern multi-core architectures or massively parallel machines.     |
|      Do your own testing !!!!                                               |
|      Unfortunately you need to use the default for GW and RPA calculations. |
|      (for HF NCORE is supported but not extensively tested yet)             |
|                                                                             |
 ----------------------------------------------------------------------------- 

 POTCAR:   PAW_PBE Si 05Jan2001                   
   VRHFIN =Si: s2p2                                                             
   LEXCH  = PE                                                                  
   EATOM  =   103.0669 eV,    7.5752 Ry                                         
                                                                                
   TITEL  = PAW_PBE Si 05Jan2001                                                
   LULTRA =        F    use ultrasoft PP ?                                      
   IUNSCR =        1    unscreen: 0-lin 1-nonlin 2-no                           
   RPACOR =    1.500    partial core radius                                     
   POMASS =   28.085; ZVAL   =    4.000    mass and valenz                      
   RCORE  =    1.900    outmost cutoff radius                                   
   RWIGS  =    2.480; RWIGS  =    1.312    wigner-seitz radius (au A)           
   ENMAX  =  245.345; ENMIN  =  184.009 eV                                      
   ICORE  =        2    local potential                                         
   LCOR   =        T    correct aug charges                                     
   LPAW   =        T    paw PP                                                  
   EAUG   =  322.069                                                            
   DEXC   =    -.007                                                            
   RMAX   =    2.944    core radius for proj-oper                               
   RAUG   =    1.300    factor for augmentation sphere                          
   RDEP   =    1.993    radius for radial grids                                 
   QCUT   =   -4.246; QGAM   =    8.493    optimization parameters              
                                                                                
   Description                                                                  
     l     E      TYP  RCUT    TYP  RCUT                                        
     0   .000     23  1.900                                                     
     0   .000     23  1.900                                                     
     1   .000     23  1.900                                                     
     1   .000     23  1.900                                                     
     2   .000      7  1.900                                                     
  local pseudopotential read in
  partial core-charges read in
  atomic valenz-charges read in
  non local Contribution for L=           0  read in
    real space projection operators read in
  non local Contribution for L=           0  read in
    real space projection operators read in
  non local Contribution for L=           1  read in
    real space projection operators read in
  non local Contribution for L=           1  read in
    real space projection operators read in
    PAW grid and wavefunctions read in
 
   number of l-projection  operators is LMAX  =           4
   number of lm-projection operators is LMMAX =           8
 
 PAW_PBE Si 05Jan2001                   :
 energy of atom  1       EATOM= -103.0669
 kinetic energy error for atom=    0.0013 (will be added to EATOM!!)
 
 
 POSCAR: Si2                                     
  positions in direct lattice
  No initial velocities read in
 exchange correlation table for  LEXCH =        8
   RHO(1)=    0.500       N(1)  =     2000
   RHO(2)=  100.500       N(2)  =     4000
 


--------------------------------------------------------------------------------------------------------


 ion  position               nearest neighbor table
   1  0.250  0.750  0.500-   2 2.53   2 2.53   2 2.53   2 2.53   2 3.11   2 3.11   2 3.11   2 3.11

   2  0.000  0.000  0.000-   1 2.53   1 2.53   1 2.53   1 2.53   1 3.11   1 3.11   1 3.11   1 3.11

 
  LATTYP: Found a body centered tetragonal cell.
 ALAT       =     4.9000000000
 C/A-ratio  =     0.5200000000
  
  Lattice vectors:
  
 A1 = (  -2.4500000000,   2.4500000000,   1.2740000000)
 A2 = (   2.4500000000,  -2.4500000000,   1.2740000000)
 A3 = (   2.4500000000,   2.4500000000,  -1.2740000000)


Analysis of symmetry for initial positions (statically):
=====================================================================
 Subroutine PRICEL returns:
 Original cell was already a primitive cell.
 

 Routine SETGRP: Setting up the symmetry group for a 
 body centered tetragonal supercell.


 Subroutine GETGRP returns: Found 16 space group operations
 (whereof  8 operations were pure point group operations)
 out of a pool of 16 trial point group operations.


The static configuration has the point symmetry D_2d.
 The point group associated with its full space group is D_4h.


Analysis of symmetry for dynamics (positions and initial velocities):
=====================================================================
 Subroutine PRICEL returns:
 Original cell was already a primitive cell.
 

 Routine SETGRP: Setting up the symmetry group for a 
 body centered tetragonal supercell.


 Subroutine GETGRP returns: Found 16 space group operations
 (whereof  8 operations were pure point group operations)
 out of a pool of 16 trial point group operations.


The dynamic configuration has the point symmetry D_2d.
 The point group associated with its full space group is D_4h.


 Subroutine INISYM returns: Found 16 space group operations
 (whereof  8 operations are pure point group operations),
 and found     1 'primitive' translations

 
 
 KPOINTS: Automatic kpoint scheme                 

Automatic generation of k-mesh.
Space group operators:
 irot       det(A)        alpha          n_x          n_y          n_z        tau_x        tau_y        tau_z
    1     1.000000     0.000000     1.000000     0.000000     0.000000     0.000000     0.000000     0.000000
    2    -1.000000    90.000000    -0.000000    -0.000000    -1.000000     0.000000     0.000000     0.000000
    3     1.000000   180.000000    -0.000000    -0.000000    -1.000000     0.000000     0.000000     0.000000
    4    -1.000000    90.000000    -0.000000     0.000000     1.000000     0.000000     0.000000     0.000000
    5    -1.000000   180.000000     0.000000    -1.000000     0.000000     0.000000     0.000000     0.000000
    6     1.000000   180.000000     0.707107     0.707107    -0.000000     0.000000     0.000000     0.000000
    7    -1.000000   180.000000     1.000000     0.000000     0.000000     0.000000     0.000000     0.000000
    8     1.000000   180.000000     0.707107    -0.707107     0.000000     0.000000     0.000000     0.000000
    9    -1.000000     0.000000     1.000000     0.000000     0.000000     0.250000     0.750000     0.500000
   10     1.000000    90.000000    -0.000000    -0.000000    -1.000000     0.250000     0.750000     0.500000
   11    -1.000000   180.000000    -0.000000    -0.000000    -1.000000     0.250000     0.750000     0.500000
   12     1.000000    90.000000    -0.000000     0.000000     1.000000     0.250000     0.750000     0.500000
   13     1.000000   180.000000     0.000000    -1.000000     0.000000     0.250000     0.750000     0.500000
   14    -1.000000   180.000000     0.707107     0.707107    -0.000000     0.250000     0.750000     0.500000
   15     1.000000   180.000000     1.000000     0.000000     0.000000     0.250000     0.750000     0.500000
   16    -1.000000   180.000000     0.707107    -0.707107     0.000000     0.250000     0.750000     0.500000
 
 Subroutine IBZKPT returns following result:
 ===========================================
 
 Found    126 irreducible k-points:
 
 Following reciprocal coordinates:
            Coordinates               Weight
  0.000000  0.000000  0.000000      1.000000
  0.090909 -0.000000  0.000000      8.000000
  0.181818 -0.000000  0.000000      8.000000
  0.272727 -0.000000  0.000000      8.000000
  0.363636 -0.000000  0.000000      8.000000
  0.454545 -0.000000 -0.000000      8.000000
  0.090909  0.090909  0.000000      8.000000
  0.181818  0.090909 -0.000000     16.000000
  0.272727  0.090909  0.000000     16.000000
  0.363636  0.090909  0.000000     16.000000
  0.454545  0.090909 -0.000000     16.000000
 -0.454545  0.090909 -0.000000     16.000000
 -0.363636  0.090909  0.000000     16.000000
 -0.272727  0.090909  0.000000     16.000000
 -0.181818  0.090909  0.000000     16.000000
 -0.090909  0.090909  0.000000      4.000000
  0.181818  0.181818  0.000000      8.000000
  0.272727  0.181818  0.000000     16.000000
  0.363636  0.181818 -0.000000     16.000000
  0.454545  0.181818 -0.000000     16.000000
 -0.454545  0.181818 -0.000000     16.000000
 -0.363636  0.181818  0.000000     16.000000
 -0.272727  0.181818 -0.000000     16.000000
 -0.181818  0.181818  0.000000      4.000000
  0.272727  0.272727 -0.000000      8.000000
  0.363636  0.272727 -0.000000     16.000000
  0.454545  0.272727  0.000000     16.000000
 -0.454545  0.272727  0.000000     16.000000
 -0.363636  0.272727 -0.000000     16.000000
 -0.272727  0.272727 -0.000000      4.000000
  0.363636  0.363636  0.000000      8.000000
  0.454545  0.363636 -0.000000     16.000000
 -0.454545  0.363636 -0.000000     16.000000
 -0.363636  0.363636  0.000000      4.000000
  0.454545  0.454545 -0.000000      8.000000
 -0.454545  0.454545 -0.000000      4.000000
  0.090909  0.090909  0.090909      8.000000
  0.181818  0.090909  0.090909     16.000000
  0.272727  0.090909  0.090909     16.000000
  0.363636  0.090909  0.090909     16.000000
 -0.090909  0.090909  0.090909      4.000000
  0.181818  0.181818  0.090909      8.000000
  0.272727  0.181818  0.090909     16.000000
  0.363636  0.181818  0.090909     16.000000
  0.454545  0.181818  0.090909     16.000000
 -0.454545  0.181818  0.090909     16.000000
 -0.363636  0.181818  0.090909      8.000000
 -0.181818  0.181818  0.090909      8.000000
 -0.090909  0.181818  0.090909      8.000000
  0.272727  0.272727  0.090909      8.000000
  0.363636  0.272727  0.090909     16.000000
  0.454545  0.272727  0.090909     16.000000
 -0.454545  0.272727  0.090909      8.000000
 -0.272727  0.272727  0.090909      8.000000
 -0.181818  0.272727  0.090909     16.000000
 -0.090909  0.272727  0.090909      8.000000
  0.363636  0.363636  0.090909      8.000000
  0.454545  0.363636  0.090909      8.000000
 -0.363636  0.363636  0.090909      8.000000
 -0.272727  0.363636  0.090909     16.000000
 -0.181818  0.363636  0.090909     16.000000
 -0.090909  0.363636  0.090909      8.000000
 -0.454545  0.454545  0.090909      8.000000
 -0.363636  0.454545  0.090909     16.000000
 -0.272727  0.454545  0.090909     16.000000
 -0.181818  0.454545  0.090909     16.000000
 -0.090909  0.454545  0.090909      8.000000
 -0.454545 -0.454545  0.090909      8.000000
 -0.363636 -0.454545  0.090909     16.000000
 -0.272727 -0.454545  0.090909     16.000000
 -0.181818 -0.454545  0.090909     16.000000
 -0.090909 -0.454545  0.090909      8.000000
 -0.363636 -0.363636  0.090909      8.000000
 -0.272727 -0.363636  0.090909     16.000000
 -0.181818 -0.363636  0.090909     16.000000
 -0.090909 -0.363636  0.090909      8.000000
 -0.272727 -0.272727  0.090909      8.000000
 -0.181818 -0.272727  0.090909     16.000000
 -0.090909 -0.272727  0.090909      8.000000
 -0.181818 -0.181818  0.090909      8.000000
 -0.090909 -0.181818  0.090909      8.000000
 -0.090909 -0.090909  0.090909      2.000000
  0.181818  0.181818  0.181818      8.000000
  0.272727  0.181818  0.181818     16.000000
 -0.181818  0.181818  0.181818      4.000000
  0.272727  0.272727  0.181818      8.000000
  0.363636  0.272727  0.181818      8.000000
 -0.272727  0.272727  0.181818      8.000000
 -0.181818  0.272727  0.181818      8.000000
 -0.363636  0.363636  0.181818      8.000000
 -0.272727  0.363636  0.181818     16.000000
 -0.181818  0.363636  0.181818      8.000000
 -0.454545  0.454545  0.181818      8.000000
 -0.363636  0.454545  0.181818     16.000000
 -0.272727  0.454545  0.181818     16.000000
 -0.181818  0.454545  0.181818      8.000000
 -0.454545 -0.454545  0.181818      8.000000
 -0.363636 -0.454545  0.181818     16.000000
 -0.272727 -0.454545  0.181818     16.000000
 -0.181818 -0.454545  0.181818      8.000000
 -0.363636 -0.363636  0.181818      8.000000
 -0.272727 -0.363636  0.181818     16.000000
 -0.181818 -0.363636  0.181818      8.000000
 -0.272727 -0.272727  0.181818      8.000000
 -0.181818 -0.272727  0.181818      8.000000
 -0.181818 -0.181818  0.181818      2.000000
 -0.272727  0.272727  0.272727      4.000000
 -0.363636  0.363636  0.272727      8.000000
 -0.272727  0.363636  0.272727      8.000000
 -0.454545  0.454545  0.272727      8.000000
 -0.363636  0.454545  0.272727     16.000000
 -0.272727  0.454545  0.272727      8.000000
 -0.454545 -0.454545  0.272727      8.000000
 -0.363636 -0.454545  0.272727     16.000000
 -0.272727 -0.454545  0.272727      8.000000
 -0.363636 -0.363636  0.272727      8.000000
 -0.272727 -0.363636  0.272727      8.000000
 -0.272727 -0.272727  0.272727      2.000000
 -0.363636  0.363636  0.363636      4.000000
 -0.454545  0.454545  0.363636      8.000000
 -0.363636  0.454545  0.363636      8.000000
 -0.454545 -0.454545  0.363636      8.000000
 -0.363636 -0.454545  0.363636      8.000000
 -0.363636 -0.363636  0.363636      2.000000
 -0.454545  0.454545  0.454545      4.000000
 -0.454545 -0.454545  0.454545      2.000000
 
 Following cartesian coordinates:
            Coordinates               Weight
  0.000000  0.000000  0.000000      1.000000
  0.000000  0.018553  0.035679      8.000000
  0.000000  0.037106  0.071357      8.000000
  0.000000  0.055659  0.107036      8.000000
  0.000000  0.074212  0.142714      8.000000
 -0.000000  0.092764  0.178393      8.000000
  0.018553  0.018553  0.071357      8.000000
  0.018553  0.037106  0.107036     16.000000
  0.018553  0.055659  0.142714     16.000000
  0.018553  0.074212  0.178393     16.000000
  0.018553  0.092764  0.214072     16.000000
  0.018553 -0.092764 -0.142714     16.000000
  0.018553 -0.074212 -0.107036     16.000000
  0.018553 -0.055659 -0.071357     16.000000
  0.018553 -0.037106 -0.035679     16.000000
  0.018553 -0.018553  0.000000      4.000000
  0.037106  0.037106  0.142714      8.000000
  0.037106  0.055659  0.178393     16.000000
  0.037106  0.074212  0.214072     16.000000
  0.037106  0.092764  0.249750     16.000000
  0.037106 -0.092764 -0.107036     16.000000
  0.037106 -0.074212 -0.071357     16.000000
  0.037106 -0.055659 -0.035679     16.000000
  0.037106 -0.037106  0.000000      4.000000
  0.055659  0.055659  0.214072      8.000000
  0.055659  0.074212  0.249750     16.000000
  0.055659  0.092764  0.285429     16.000000
  0.055659 -0.092764 -0.071357     16.000000
  0.055659 -0.074212 -0.035679     16.000000
  0.055659 -0.055659  0.000000      4.000000
  0.074212  0.074212  0.285429      8.000000
  0.074212  0.092764  0.321107     16.000000
  0.074212 -0.092764 -0.035679     16.000000
  0.074212 -0.074212  0.000000      4.000000
  0.092764  0.092764  0.356786      8.000000
  0.092764 -0.092764 -0.000000      4.000000
  0.037106  0.037106  0.071357      8.000000
  0.037106  0.055659  0.107036     16.000000
  0.037106  0.074212  0.142714     16.000000
  0.037106  0.092764  0.178393     16.000000
  0.037106  0.000000  0.000000      4.000000
  0.055659  0.055659  0.142714      8.000000
  0.055659  0.074212  0.178393     16.000000
  0.055659  0.092764  0.214072     16.000000
  0.055659  0.111317  0.249750     16.000000
  0.055659 -0.074212 -0.107036     16.000000
  0.055659 -0.055659 -0.071357      8.000000
  0.055659 -0.018553 -0.000000      8.000000
  0.055659 -0.000000  0.035679      8.000000
  0.074212  0.074212  0.214072      8.000000
  0.074212  0.092764  0.249750     16.000000
  0.074212  0.111317  0.285429     16.000000
  0.074212 -0.074212 -0.071357      8.000000
  0.074212 -0.037106  0.000000      8.000000
  0.074212 -0.018553  0.035679     16.000000
  0.074212  0.000000  0.071357      8.000000
  0.092764  0.092764  0.285429      8.000000
  0.092764  0.111317  0.321107      8.000000
  0.092764 -0.055659  0.000000      8.000000
  0.092764 -0.037106  0.035679     16.000000
  0.092764 -0.018553  0.071357     16.000000
  0.092764  0.000000  0.107036      8.000000
  0.111317 -0.074212 -0.000000      8.000000
  0.111317 -0.055659  0.035679     16.000000
  0.111317 -0.037106  0.071357     16.000000
  0.111317 -0.018553  0.107036     16.000000
  0.111317 -0.000000  0.142714      8.000000
 -0.074212 -0.074212 -0.356786      8.000000
 -0.074212 -0.055659 -0.321107     16.000000
 -0.074212 -0.037106 -0.285429     16.000000
 -0.074212 -0.018553 -0.249750     16.000000
 -0.074212  0.000000 -0.214072      8.000000
 -0.055659 -0.055659 -0.285429      8.000000
 -0.055659 -0.037106 -0.249750     16.000000
 -0.055659 -0.018553 -0.214072     16.000000
 -0.055659  0.000000 -0.178393      8.000000
 -0.037106 -0.037106 -0.214072      8.000000
 -0.037106 -0.018553 -0.178393     16.000000
 -0.037106  0.000000 -0.142714      8.000000
 -0.018553 -0.018553 -0.142714      8.000000
 -0.018553  0.000000 -0.107036      8.000000
  0.000000 -0.000000 -0.071357      2.000000
  0.074212  0.074212  0.142714      8.000000
  0.074212  0.092764  0.178393     16.000000
  0.074212  0.000000  0.000000      4.000000
  0.092764  0.092764  0.214072      8.000000
  0.092764  0.111317  0.249750      8.000000
  0.092764 -0.018553 -0.000000      8.000000
  0.092764  0.000000  0.035679      8.000000
  0.111317 -0.037106 -0.000000      8.000000
  0.111317 -0.018553  0.035679     16.000000
  0.111317 -0.000000  0.071357      8.000000
  0.129870 -0.055659 -0.000000      8.000000
  0.129870 -0.037106  0.035679     16.000000
  0.129870 -0.018553  0.071357     16.000000
  0.129870  0.000000  0.107036      8.000000
 -0.055659 -0.055659 -0.356786      8.000000
 -0.055659 -0.037106 -0.321107     16.000000
 -0.055659 -0.018553 -0.285429     16.000000
 -0.055659  0.000000 -0.249750      8.000000
 -0.037106 -0.037106 -0.285429      8.000000
 -0.037106 -0.018553 -0.249750     16.000000
 -0.037106  0.000000 -0.214072      8.000000
 -0.018553 -0.018553 -0.214072      8.000000
 -0.018553  0.000000 -0.178393      8.000000
  0.000000 -0.000000 -0.142714      2.000000
  0.111317  0.000000  0.000000      4.000000
  0.129870 -0.018553 -0.000000      8.000000
  0.129870 -0.000000  0.035679      8.000000
  0.148423 -0.037106 -0.000000      8.000000
  0.148423 -0.018553  0.035679     16.000000
  0.148423 -0.000000  0.071357      8.000000
 -0.037106 -0.037106 -0.356786      8.000000
 -0.037106 -0.018553 -0.321107     16.000000
 -0.037106  0.000000 -0.285429      8.000000
 -0.018553 -0.018553 -0.285429      8.000000
 -0.018553 -0.000000 -0.249750      8.000000
 -0.000000  0.000000 -0.214072      2.000000
  0.148423  0.000000  0.000000      4.000000
  0.166976 -0.018553 -0.000000      8.000000
  0.166976 -0.000000  0.035679      8.000000
 -0.018553 -0.018553 -0.356786      8.000000
 -0.018553 -0.000000 -0.321107      8.000000
  0.000000 -0.000000 -0.285429      2.000000
  0.185529 -0.000000 -0.000000      4.000000
 -0.000000 -0.000000 -0.356786      2.000000
 


--------------------------------------------------------------------------------------------------------




 Dimension of arrays:
   k-points           NKPTS =    126   k-points in BZ     NKDIM =    126   number of bands    NBANDS=      8
   number of dos      NEDOS =    301   number of ions     NIONS =      2
   non local maximal  LDIM  =      4   non local SUM 2l+1 LMDIM =      8
   total plane-waves  NPLWV =   5832
   max r-space proj   IRMAX =      1   max aug-charges    IRDMAX=   6573
   dimension x,y,z NGX =    18 NGY =   18 NGZ =   18
   dimension x,y,z NGXF=    36 NGYF=   36 NGZF=   36
   support grid    NGXF=    36 NGYF=   36 NGZF=   36
   ions per type =               2
   NGX,Y,Z   is equivalent  to a cutoff of   8.11,  8.11,  8.11 a.u.
   NGXF,Y,Z  is equivalent  to a cutoff of  16.21, 16.21, 16.21 a.u.

 SYSTEM =  unknown system                          
 POSCAR =  Si2                                     

 Startparameter for this run:
   NWRITE =      2    write-flag & timer
   PREC   = normal    normal or accurate (medium, high low for compatibility)
   ISTART =      0    job   : 0-new  1-cont  2-samecut
   ICHARG =      2    charge: 1-file 2-atom 10-const
   ISPIN  =      1    spin polarized calculation?
   LNONCOLLINEAR =      F non collinear calculations
   LSORBIT =      F    spin-orbit coupling
   INIWAV =      1    electr: 0-lowe 1-rand  2-diag
   LASPH  =      F    aspherical Exc in radial PAW
   METAGGA=      F    non-selfconsistent MetaGGA calc.

 Electronic Relaxation 1
   ENCUT  =  350.0 eV  25.72 Ry    5.07 a.u.   5.63  5.63  5.63*2*pi/ulx,y,z
   ENINI  =  350.0     initial cutoff
   ENAUG  =  322.1 eV  augmentation charge cutoff
   NELM   =     60;   NELMIN=  2; NELMDL= -5     # of ELM steps 
   EDIFF  = 0.4E-03   stopping-criterion for ELM
   LREAL  =      F    real-space projection
   NLSPLINE    = F    spline interpolate recip. space projectors
   LCOMPAT=      F    compatible to vasp.4.4
   GGA_COMPAT  = T    GGA compatible to vasp.4.4-vasp.4.6
   LMAXPAW     = -100 max onsite density
   LMAXMIX     =    2 max onsite mixed and CHGCAR
   VOSKOWN=      0    Vosko Wilk Nusair interpolation
   ROPT   =    0.00000
 Ionic relaxation
   EDIFFG = -.1E-01   stopping-criterion for IOM
   NSW    =     15    number of steps for IOM
   NBLOCK =      1;   KBLOCK =     15    inner block; outer block 
   IBRION =      2    ionic relax: 0-MD 1-quasi-New 2-CG
   NFREE  =      1    steps in history (QN), initial steepest desc. (CG)
   ISIF   =      2    stress and relaxation
   IWAVPR =     11    prediction:  0-non 1-charg 2-wave 3-comb
   ISYM   =      2    0-nonsym 1-usesym 2-fastsym
   LCORR  =      T    Harris-Foulkes like correction to forces

   POTIM  = 0.5000    time-step for ionic-motion
   TEIN   =    0.0    initial temperature
   TEBEG  =    0.0;   TEEND  =   0.0 temperature during run
   SMASS  =  -3.00    Nose mass-parameter (am)
   estimated Nose-frequenzy (Omega)   =  0.10E-29 period in steps =****** mass=  -0.311E-27a.u.
   SCALEE = 1.0000    scale energy and forces
   NPACO  =    256;   APACO  = 16.0  distance and # of slots for P.C.
   PSTRESS=    0.0 pullay stress

  Mass of Ions in am
   POMASS =  28.09
  Ionic Valenz
   ZVAL   =   4.00
  Atomic Wigner-Seitz radii
   RWIGS  =  -1.00
  virtual crystal weights 
   VCA    =   1.00
   NELECT =       8.0000    total number of electrons
   NUPDOWN=      -1.0000    fix difference up-down

 DOS related values:
   EMIN   =  10.00;   EMAX   =-10.00  energy-range for DOS
   EFERMI =   0.00
   ISMEAR =     0;   SIGMA  =   0.20  broadening in eV -4-tet -1-fermi 0-gaus

 Electronic relaxation 2 (details)
   IALGO  =     38    algorithm
   LDIAG  =      T    sub-space diagonalisation (order eigenvalues)
   LSUBROT=      F    optimize rotation matrix (better conditioning)
   TURBO    =      0    0=normal 1=particle mesh
   IRESTART =      0    0=no restart 2=restart with 2 vectors
   NREBOOT  =      0    no. of reboots
   NMIN     =      0    reboot dimension
   EREF     =   0.00    reference energy to select bands
   IMIX   =      4    mixing-type and parameters
     AMIX     =   0.40;   BMIX     =  1.00
     AMIX_MAG =   1.60;   BMIX_MAG =  1.00
     AMIN     =   0.10
     WC   =   100.;   INIMIX=   1;  MIXPRE=   1;  MAXMIX= -45

 Intra band minimization:
   WEIMIN = 0.0010     energy-eigenvalue tresh-hold
   EBREAK =  0.13E-04  absolut break condition
   DEPER  =   0.30     relativ break condition  

   TIME   =   0.40     timestep for ELM

  volume/ion in A,a.u.               =      15.29       103.21
  Fermi-wavevector in a.u.,A,eV,Ry     =   1.046930  1.978411 14.912834  1.096062
  Thomas-Fermi vector in A             =   2.181789
 
 Write flags
   LWAVE        =      T    write WAVECAR
   LDOWNSAMPLE  =      F    k-point downsampling of WAVECAR
   LCHARG       =      T    write CHGCAR
   LVTOT        =      F    write LOCPOT, total local potential
   LVHAR        =      F    write LOCPOT, Hartree potential only
   LELF         =      F    write electronic localiz. function (ELF)
   LORBIT       =      0    0 simple, 1 ext, 2 COOP (PROOUT), +10 PAW based schemes


 Dipole corrections
   LMONO  =      F    monopole corrections only (constant potential shift)
   LDIPOL =      F    correct potential (dipole corrections)
   IDIPOL =      0    1-x, 2-y, 3-z, 4-all directions 
   EPSILON=  1.0000000 bulk dielectric constant

 Exchange correlation treatment:
   GGA     =    --    GGA type
   LEXCH   =     8    internal setting for exchange type
   VOSKOWN=      0    Vosko Wilk Nusair interpolation
   LHFCALC =     F    Hartree Fock is set to
   LHFONE  =     F    Hartree Fock one center treatment
   AEXX    =    0.0000 exact exchange contribution

 Linear response parameters
   LEPSILON=     F    determine dielectric tensor
   LRPA    =     F    only Hartree local field effects (RPA)
   LNABLA  =     F    use nabla operator in PAW spheres
   LVEL    =     F    velocity operator in full k-point grid
   LINTERFAST=   F  fast interpolation
   KINTER  =     0    interpolate to denser k-point grid
   CSHIFT  =0.1000    complex shift for real part using Kramers Kronig
   OMEGAMAX=  -1.0    maximum frequency
   DEG_THRESHOLD= 0.2000000E-02 threshold for treating states as degnerate
   RTIME   =   -0.100 relaxation time in fs
  (WPLASMAI=    0.000 imaginary part of plasma frequency in eV, 0.658/RTIME)
   DFIELD  = 0.0000000 0.0000000 0.0000000 field for delta impulse in time
 
 Orbital magnetization related:
   ORBITALMAG=     F  switch on orbital magnetization
   LCHIMAG   =     F  perturbation theory with respect to B field
   DQ        =  0.001000  dq finite difference perturbation B field
   LLRAUG    =     F  two centre corrections for induced B field



--------------------------------------------------------------------------------------------------------


 conjugate gradient relaxation of ions
 charge density and potential will be updated during run
 non-spin polarized calculation
 Variant of blocked Davidson
 Davidson routine will perform the subspace rotation
 perform sub-space diagonalisation
    after iterative eigenvector-optimisation
 modified Broyden-mixing scheme, WC =      100.0
 initial mixing is a Kerker type mixing with AMIX =  0.4000 and BMIX =      1.0000
 Hartree-type preconditioning will be used
 using additional bands            4
 reciprocal scheme for non local part
 use partial core corrections
 calculate Harris-corrections to forces 
   (improved forces if not selfconsistent)
 use gradient corrections 
 use of overlap-Matrix (Vanderbilt PP)
 Gauss-broadening in eV      SIGMA  =   0.20


--------------------------------------------------------------------------------------------------------


  energy-cutoff  :      350.00
  volume of cell :       30.59
      direct lattice vectors                 reciprocal lattice vectors
    -2.450000000  2.450000000  1.274000000     0.000000000  0.204081633  0.392464678
     2.450000000 -2.450000000  1.274000000     0.204081633  0.000000000  0.392464678
     2.450000000  2.450000000 -1.274000000     0.204081633  0.204081633 -0.000000000

  length of vectors
     3.691622408  3.691622408  3.691622408     0.442354876  0.442354876  0.288615013


 
 k-points in units of 2pi/SCALE and weight: Automatic kpoint scheme                 
   0.00000000  0.00000000  0.00000000       0.001
   0.00000000  0.01855288  0.03567861       0.006
   0.00000000  0.03710575  0.07135721       0.006
   0.00000000  0.05565863  0.10703582       0.006
   0.00000000  0.07421150  0.14271443       0.006
  -0.00000000  0.09276438  0.17839304       0.006
   0.01855288  0.01855288  0.07135721       0.006
   0.01855288  0.03710575  0.10703582       0.012
   0.01855288  0.05565863  0.14271443       0.012
   0.01855288  0.07421150  0.17839304       0.012
   0.01855288  0.09276438  0.21407164       0.012
   0.01855288 -0.09276438 -0.14271443       0.012
   0.01855288 -0.07421150 -0.10703582       0.012
   0.01855288 -0.05565863 -0.07135721       0.012
   0.01855288 -0.03710575 -0.03567861       0.012
   0.01855288 -0.01855288  0.00000000       0.003
   0.03710575  0.03710575  0.14271443       0.006
   0.03710575  0.05565863  0.17839304       0.012
   0.03710575  0.07421150  0.21407164       0.012
   0.03710575  0.09276438  0.24975025       0.012
   0.03710575 -0.09276438 -0.10703582       0.012
   0.03710575 -0.07421150 -0.07135721       0.012
   0.03710575 -0.05565863 -0.03567861       0.012
   0.03710575 -0.03710575  0.00000000       0.003
   0.05565863  0.05565863  0.21407164       0.006
   0.05565863  0.07421150  0.24975025       0.012
   0.05565863  0.09276438  0.28542886       0.012
   0.05565863 -0.09276438 -0.07135721       0.012
   0.05565863 -0.07421150 -0.03567861       0.012
   0.05565863 -0.05565863  0.00000000       0.003
   0.07421150  0.07421150  0.28542886       0.006
   0.07421150  0.09276438  0.32110746       0.012
   0.07421150 -0.09276438 -0.03567861       0.012
   0.07421150 -0.07421150  0.00000000       0.003
   0.09276438  0.09276438  0.35678607       0.006
   0.09276438 -0.09276438 -0.00000000       0.003
   0.03710575  0.03710575  0.07135721       0.006
   0.03710575  0.05565863  0.10703582       0.012
   0.03710575  0.07421150  0.14271443       0.012
   0.03710575  0.09276438  0.17839304       0.012
   0.03710575 -0.00000000 -0.00000000       0.003
   0.05565863  0.05565863  0.14271443       0.006
   0.05565863  0.07421150  0.17839304       0.012
   0.05565863  0.09276438  0.21407164       0.012
   0.05565863  0.11131725  0.24975025       0.012
   0.05565863 -0.07421150 -0.10703582       0.012
   0.05565863 -0.05565863 -0.07135721       0.006
   0.05565863 -0.01855288  0.00000000       0.006
   0.05565863 -0.00000000  0.03567861       0.006
   0.07421150  0.07421150  0.21407164       0.006
   0.07421150  0.09276438  0.24975025       0.012
   0.07421150  0.11131725  0.28542886       0.012
   0.07421150 -0.07421150 -0.07135721       0.006
   0.07421150 -0.03710575 -0.00000000       0.006
   0.07421150 -0.01855288  0.03567861       0.012
   0.07421150 -0.00000000  0.07135721       0.006
   0.09276438  0.09276438  0.28542886       0.006
   0.09276438  0.11131725  0.32110746       0.006
   0.09276438 -0.05565863  0.00000000       0.006
   0.09276438 -0.03710575  0.03567861       0.012
   0.09276438 -0.01855288  0.07135721       0.012
   0.09276438  0.00000000  0.10703582       0.006
   0.11131725 -0.07421150 -0.00000000       0.006
   0.11131725 -0.05565863  0.03567861       0.012
   0.11131725 -0.03710575  0.07135721       0.012
   0.11131725 -0.01855288  0.10703582       0.012
   0.11131725 -0.00000000  0.14271443       0.006
  -0.07421150 -0.07421150 -0.35678607       0.006
  -0.07421150 -0.05565863 -0.32110746       0.012
  -0.07421150 -0.03710575 -0.28542886       0.012
  -0.07421150 -0.01855288 -0.24975025       0.012
  -0.07421150 -0.00000000 -0.21407164       0.006
  -0.05565863 -0.05565863 -0.28542886       0.006
  -0.05565863 -0.03710575 -0.24975025       0.012
  -0.05565863 -0.01855288 -0.21407164       0.012
  -0.05565863 -0.00000000 -0.17839304       0.006
  -0.03710575 -0.03710575 -0.21407164       0.006
  -0.03710575 -0.01855288 -0.17839304       0.012
  -0.03710575  0.00000000 -0.14271443       0.006
  -0.01855288 -0.01855288 -0.14271443       0.006
  -0.01855288 -0.00000000 -0.10703582       0.006
   0.00000000 -0.00000000 -0.07135721       0.002
   0.07421150  0.07421150  0.14271443       0.006
   0.07421150  0.09276438  0.17839304       0.012
   0.07421150 -0.00000000 -0.00000000       0.003
   0.09276438  0.09276438  0.21407164       0.006
   0.09276438  0.11131725  0.24975025       0.006
   0.09276438 -0.01855288  0.00000000       0.006
   0.09276438  0.00000000  0.03567861       0.006
   0.11131725 -0.03710575  0.00000000       0.006
   0.11131725 -0.01855288  0.03567861       0.012
   0.11131725 -0.00000000  0.07135721       0.006
   0.12987013 -0.05565863 -0.00000000       0.006
   0.12987013 -0.03710575  0.03567861       0.012
   0.12987013 -0.01855288  0.07135721       0.012
   0.12987013 -0.00000000  0.10703582       0.006
  -0.05565863 -0.05565863 -0.35678607       0.006
  -0.05565863 -0.03710575 -0.32110746       0.012
  -0.05565863 -0.01855288 -0.28542886       0.012
  -0.05565863  0.00000000 -0.24975025       0.006
  -0.03710575 -0.03710575 -0.28542886       0.006
  -0.03710575 -0.01855288 -0.24975025       0.012
  -0.03710575 -0.00000000 -0.21407164       0.006
  -0.01855288 -0.01855288 -0.21407164       0.006
  -0.01855288 -0.00000000 -0.17839304       0.006
   0.00000000 -0.00000000 -0.14271443       0.002
   0.11131725  0.00000000 -0.00000000       0.003
   0.12987013 -0.01855288  0.00000000       0.006
   0.12987013 -0.00000000  0.03567861       0.006
   0.14842301 -0.03710575 -0.00000000       0.006
   0.14842301 -0.01855288  0.03567861       0.012
   0.14842301 -0.00000000  0.07135721       0.006
  -0.03710575 -0.03710575 -0.35678607       0.006
  -0.03710575 -0.01855288 -0.32110746       0.012
  -0.03710575 -0.00000000 -0.28542886       0.006
  -0.01855288 -0.01855288 -0.28542886       0.006
  -0.01855288 -0.00000000 -0.24975025       0.006
   0.00000000  0.00000000 -0.21407164       0.002
   0.14842301 -0.00000000 -0.00000000       0.003
   0.16697588 -0.01855288 -0.00000000       0.006
   0.16697588 -0.00000000  0.03567861       0.006
  -0.01855288 -0.01855288 -0.35678607       0.006
  -0.01855288 -0.00000000 -0.32110746       0.006
   0.00000000 -0.00000000 -0.28542886       0.002
   0.18552876 -0.00000000 -0.00000000       0.003
  -0.00000000 -0.00000000 -0.35678607       0.002
 
 k-points in reciprocal lattice and weights: Automatic kpoint scheme                 
   0.00000000  0.00000000  0.00000000       0.001
   0.09090909 -0.00000000  0.00000000       0.006
   0.18181818 -0.00000000  0.00000000       0.006
   0.27272727 -0.00000000  0.00000000       0.006
   0.36363636 -0.00000000  0.00000000       0.006
   0.45454545 -0.00000000 -0.00000000       0.006
   0.09090909  0.09090909  0.00000000       0.006
   0.18181818  0.09090909 -0.00000000       0.012
   0.27272727  0.09090909  0.00000000       0.012
   0.36363636  0.09090909  0.00000000       0.012
   0.45454545  0.09090909 -0.00000000       0.012
  -0.45454545  0.09090909 -0.00000000       0.012
  -0.36363636  0.09090909  0.00000000       0.012
  -0.27272727  0.09090909  0.00000000       0.012
  -0.18181818  0.09090909  0.00000000       0.012
  -0.09090909  0.09090909  0.00000000       0.003
   0.18181818  0.18181818  0.00000000       0.006
   0.27272727  0.18181818  0.00000000       0.012
   0.36363636  0.18181818 -0.00000000       0.012
   0.45454545  0.18181818 -0.00000000       0.012
  -0.45454545  0.18181818 -0.00000000       0.012
  -0.36363636  0.18181818  0.00000000       0.012
  -0.27272727  0.18181818 -0.00000000       0.012
  -0.18181818  0.18181818  0.00000000       0.003
   0.27272727  0.27272727 -0.00000000       0.006
   0.36363636  0.27272727 -0.00000000       0.012
   0.45454545  0.27272727  0.00000000       0.012
  -0.45454545  0.27272727  0.00000000       0.012
  -0.36363636  0.27272727 -0.00000000       0.012
  -0.27272727  0.27272727 -0.00000000       0.003
   0.36363636  0.36363636  0.00000000       0.006
   0.45454545  0.36363636 -0.00000000       0.012
  -0.45454545  0.36363636 -0.00000000       0.012
  -0.36363636  0.36363636  0.00000000       0.003
   0.45454545  0.45454545 -0.00000000       0.006
  -0.45454545  0.45454545 -0.00000000       0.003
   0.09090909  0.09090909  0.09090909       0.006
   0.18181818  0.09090909  0.09090909       0.012
   0.27272727  0.09090909  0.09090909       0.012
   0.36363636  0.09090909  0.09090909       0.012
  -0.09090909  0.09090909  0.09090909       0.003
   0.18181818  0.18181818  0.09090909       0.006
   0.27272727  0.18181818  0.09090909       0.012
   0.36363636  0.18181818  0.09090909       0.012
   0.45454545  0.18181818  0.09090909       0.012
  -0.45454545  0.18181818  0.09090909       0.012
  -0.36363636  0.18181818  0.09090909       0.006
  -0.18181818  0.18181818  0.09090909       0.006
  -0.09090909  0.18181818  0.09090909       0.006
   0.27272727  0.27272727  0.09090909       0.006
   0.36363636  0.27272727  0.09090909       0.012
   0.45454545  0.27272727  0.09090909       0.012
  -0.45454545  0.27272727  0.09090909       0.006
  -0.27272727  0.27272727  0.09090909       0.006
  -0.18181818  0.27272727  0.09090909       0.012
  -0.09090909  0.27272727  0.09090909       0.006
   0.36363636  0.36363636  0.09090909       0.006
   0.45454545  0.36363636  0.09090909       0.006
  -0.36363636  0.36363636  0.09090909       0.006
  -0.27272727  0.36363636  0.09090909       0.012
  -0.18181818  0.36363636  0.09090909       0.012
  -0.09090909  0.36363636  0.09090909       0.006
  -0.45454545  0.45454545  0.09090909       0.006
  -0.36363636  0.45454545  0.09090909       0.012
  -0.27272727  0.45454545  0.09090909       0.012
  -0.18181818  0.45454545  0.09090909       0.012
  -0.09090909  0.45454545  0.09090909       0.006
  -0.45454545 -0.45454545  0.09090909       0.006
  -0.36363636 -0.45454545  0.09090909       0.012
  -0.27272727 -0.45454545  0.09090909       0.012
  -0.18181818 -0.45454545  0.09090909       0.012
  -0.09090909 -0.45454545  0.09090909       0.006
  -0.36363636 -0.36363636  0.09090909       0.006
  -0.27272727 -0.36363636  0.09090909       0.012
  -0.18181818 -0.36363636  0.09090909       0.012
  -0.09090909 -0.36363636  0.09090909       0.006
  -0.27272727 -0.27272727  0.09090909       0.006
  -0.18181818 -0.27272727  0.09090909       0.012
  -0.09090909 -0.27272727  0.09090909       0.006
  -0.18181818 -0.18181818  0.09090909       0.006
  -0.09090909 -0.18181818  0.09090909       0.006
  -0.09090909 -0.09090909  0.09090909       0.002
   0.18181818  0.18181818  0.18181818       0.006
   0.27272727  0.18181818  0.18181818       0.012
  -0.18181818  0.18181818  0.18181818       0.003
   0.27272727  0.27272727  0.18181818       0.006
   0.36363636  0.27272727  0.18181818       0.006
  -0.27272727  0.27272727  0.18181818       0.006
  -0.18181818  0.27272727  0.18181818       0.006
  -0.36363636  0.36363636  0.18181818       0.006
  -0.27272727  0.36363636  0.18181818       0.012
  -0.18181818  0.36363636  0.18181818       0.006
  -0.45454545  0.45454545  0.18181818       0.006
  -0.36363636  0.45454545  0.18181818       0.012
  -0.27272727  0.45454545  0.18181818       0.012
  -0.18181818  0.45454545  0.18181818       0.006
  -0.45454545 -0.45454545  0.18181818       0.006
  -0.36363636 -0.45454545  0.18181818       0.012
  -0.27272727 -0.45454545  0.18181818       0.012
  -0.18181818 -0.45454545  0.18181818       0.006
  -0.36363636 -0.36363636  0.18181818       0.006
  -0.27272727 -0.36363636  0.18181818       0.012
  -0.18181818 -0.36363636  0.18181818       0.006
  -0.27272727 -0.27272727  0.18181818       0.006
  -0.18181818 -0.27272727  0.18181818       0.006
  -0.18181818 -0.18181818  0.18181818       0.002
  -0.27272727  0.27272727  0.27272727       0.003
  -0.36363636  0.36363636  0.27272727       0.006
  -0.27272727  0.36363636  0.27272727       0.006
  -0.45454545  0.45454545  0.27272727       0.006
  -0.36363636  0.45454545  0.27272727       0.012
  -0.27272727  0.45454545  0.27272727       0.006
  -0.45454545 -0.45454545  0.27272727       0.006
  -0.36363636 -0.45454545  0.27272727       0.012
  -0.27272727 -0.45454545  0.27272727       0.006
  -0.36363636 -0.36363636  0.27272727       0.006
  -0.27272727 -0.36363636  0.27272727       0.006
  -0.27272727 -0.27272727  0.27272727       0.002
  -0.36363636  0.36363636  0.36363636       0.003
  -0.45454545  0.45454545  0.36363636       0.006
  -0.36363636  0.45454545  0.36363636       0.006
  -0.45454545 -0.45454545  0.36363636       0.006
  -0.36363636 -0.45454545  0.36363636       0.006
  -0.36363636 -0.36363636  0.36363636       0.002
  -0.45454545  0.45454545  0.45454545       0.003
  -0.45454545 -0.45454545  0.45454545       0.002
 
 position of ions in fractional coordinates (direct lattice) 
   0.25000000  0.75000000  0.50000000
   0.00000000  0.00000000  0.00000000
 
 position of ions in cartesian coordinates  (Angst):
   2.45000000  0.00000000  0.63700000
   0.00000000  0.00000000  0.00000000
 


--------------------------------------------------------------------------------------------------------


 k-point  1 :   0.0000 0.0000 0.0000  plane waves:     451
 k-point  2 :   0.0909-0.0000 0.0000  plane waves:     456
 k-point  3 :   0.1818-0.0000 0.0000  plane waves:     464
 k-point  4 :   0.2727-0.0000 0.0000  plane waves:     465
 k-point  5 :   0.3636-0.0000 0.0000  plane waves:     454
 k-point  6 :   0.4545-0.0000-0.0000  plane waves:     458
 k-point  7 :   0.0909 0.0909 0.0000  plane waves:     461
 k-point  8 :   0.1818 0.0909-0.0000  plane waves:     463
 k-point  9 :   0.2727 0.0909 0.0000  plane waves:     460
 k-point 10 :   0.3636 0.0909 0.0000  plane waves:     457
 k-point 11 :   0.4545 0.0909-0.0000  plane waves:     460
 k-point 12 :  -0.4545 0.0909-0.0000  plane waves:     456
 k-point 13 :  -0.3636 0.0909 0.0000  plane waves:     457
 k-point 14 :  -0.2727 0.0909 0.0000  plane waves:     462
 k-point 15 :  -0.1818 0.0909 0.0000  plane waves:     459
 k-point 16 :  -0.0909 0.0909 0.0000  plane waves:     455
 k-point 17 :   0.1818 0.1818 0.0000  plane waves:     459
 k-point 18 :   0.2727 0.1818 0.0000  plane waves:     458
 k-point 19 :   0.3636 0.1818-0.0000  plane waves:     459
 k-point 20 :   0.4545 0.1818-0.0000  plane waves:     458
 k-point 21 :  -0.4545 0.1818-0.0000  plane waves:     453
 k-point 22 :  -0.3636 0.1818 0.0000  plane waves:     455
 k-point 23 :  -0.2727 0.1818-0.0000  plane waves:     454
 k-point 24 :  -0.1818 0.1818 0.0000  plane waves:     457
 k-point 25 :   0.2727 0.2727-0.0000  plane waves:     459
 k-point 26 :   0.3636 0.2727-0.0000  plane waves:     454
 k-point 27 :   0.4545 0.2727 0.0000  plane waves:     454
 k-point 28 :  -0.4545 0.2727 0.0000  plane waves:     451
 k-point 29 :  -0.3636 0.2727-0.0000  plane waves:     451
 k-point 30 :  -0.2727 0.2727-0.0000  plane waves:     455
 k-point 31 :   0.3636 0.3636 0.0000  plane waves:     450
 k-point 32 :   0.4545 0.3636-0.0000  plane waves:     451
 k-point 33 :  -0.4545 0.3636-0.0000  plane waves:     447
 k-point 34 :  -0.3636 0.3636 0.0000  plane waves:     454
 k-point 35 :   0.4545 0.4545-0.0000  plane waves:     449
 k-point 36 :  -0.4545 0.4545-0.0000  plane waves:     446
 k-point 37 :   0.0909 0.0909 0.0909  plane waves:     459
 k-point 38 :   0.1818 0.0909 0.0909  plane waves:     462
 k-point 39 :   0.2727 0.0909 0.0909  plane waves:     460
 k-point 40 :   0.3636 0.0909 0.0909  plane waves:     459
 k-point 41 :  -0.0909 0.0909 0.0909  plane waves:     453
 k-point 42 :   0.1818 0.1818 0.0909  plane waves:     456
 k-point 43 :   0.2727 0.1818 0.0909  plane waves:     464
 k-point 44 :   0.3636 0.1818 0.0909  plane waves:     456
 k-point 45 :   0.4545 0.1818 0.0909  plane waves:     458
 k-point 46 :  -0.4545 0.1818 0.0909  plane waves:     455
 k-point 47 :  -0.3636 0.1818 0.0909  plane waves:     455
 k-point 48 :  -0.1818 0.1818 0.0909  plane waves:     455
 k-point 49 :  -0.0909 0.1818 0.0909  plane waves:     456
 k-point 50 :   0.2727 0.2727 0.0909  plane waves:     457
 k-point 51 :   0.3636 0.2727 0.0909  plane waves:     456
 k-point 52 :   0.4545 0.2727 0.0909  plane waves:     458
 k-point 53 :  -0.4545 0.2727 0.0909  plane waves:     453
 k-point 54 :  -0.2727 0.2727 0.0909  plane waves:     458
 k-point 55 :  -0.1818 0.2727 0.0909  plane waves:     453
 k-point 56 :  -0.0909 0.2727 0.0909  plane waves:     456
 k-point 57 :   0.3636 0.3636 0.0909  plane waves:     452
 k-point 58 :   0.4545 0.3636 0.0909  plane waves:     450
 k-point 59 :  -0.3636 0.3636 0.0909  plane waves:     449
 k-point 60 :  -0.2727 0.3636 0.0909  plane waves:     448
 k-point 61 :  -0.1818 0.3636 0.0909  plane waves:     454
 k-point 62 :  -0.0909 0.3636 0.0909  plane waves:     455
 k-point 63 :  -0.4545 0.4545 0.0909  plane waves:     448
 k-point 64 :  -0.3636 0.4545 0.0909  plane waves:     450
 k-point 65 :  -0.2727 0.4545 0.0909  plane waves:     450
 k-point 66 :  -0.1818 0.4545 0.0909  plane waves:     454
 k-point 67 :  -0.0909 0.4545 0.0909  plane waves:     452
 k-point 68 :  -0.4545-0.4545 0.0909  plane waves:     449
 k-point 69 :  -0.3636-0.4545 0.0909  plane waves:     450
 k-point 70 :  -0.2727-0.4545 0.0909  plane waves:     452
 k-point 71 :  -0.1818-0.4545 0.0909  plane waves:     457
 k-point 72 :  -0.0909-0.4545 0.0909  plane waves:     457
 k-point 73 :  -0.3636-0.3636 0.0909  plane waves:     450
 k-point 74 :  -0.2727-0.3636 0.0909  plane waves:     458
 k-point 75 :  -0.1818-0.3636 0.0909  plane waves:     455
 k-point 76 :  -0.0909-0.3636 0.0909  plane waves:     458
 k-point 77 :  -0.2727-0.2727 0.0909  plane waves:     460
 k-point 78 :  -0.1818-0.2727 0.0909  plane waves:     458
 k-point 79 :  -0.0909-0.2727 0.0909  plane waves:     458
 k-point 80 :  -0.1818-0.1818 0.0909  plane waves:     462
 k-point 81 :  -0.0909-0.1818 0.0909  plane waves:     462
 k-point 82 :  -0.0909-0.0909 0.0909  plane waves:     464
 k-point 83 :   0.1818 0.1818 0.1818  plane waves:     462
 k-point 84 :   0.2727 0.1818 0.1818  plane waves:     459
 k-point 85 :  -0.1818 0.1818 0.1818  plane waves:     455
 k-point 86 :   0.2727 0.2727 0.1818  plane waves:     456
 k-point 87 :   0.3636 0.2727 0.1818  plane waves:     458
 k-point 88 :  -0.2727 0.2727 0.1818  plane waves:     453
 k-point 89 :  -0.1818 0.2727 0.1818  plane waves:     451
 k-point 90 :  -0.3636 0.3636 0.1818  plane waves:     451
 k-point 91 :  -0.2727 0.3636 0.1818  plane waves:     451
 k-point 92 :  -0.1818 0.3636 0.1818  plane waves:     453
 k-point 93 :  -0.4545 0.4545 0.1818  plane waves:     449
 k-point 94 :  -0.3636 0.4545 0.1818  plane waves:     449
 k-point 95 :  -0.2727 0.4545 0.1818  plane waves:     451
 k-point 96 :  -0.1818 0.4545 0.1818  plane waves:     456
 k-point 97 :  -0.4545-0.4545 0.1818  plane waves:     447
 k-point 98 :  -0.3636-0.4545 0.1818  plane waves:     448
 k-point 99 :  -0.2727-0.4545 0.1818  plane waves:     452
 k-point ** :  -0.1818-0.4545 0.1818  plane waves:     458
 k-point ** :  -0.3636-0.3636 0.1818  plane waves:     452
 k-point ** :  -0.2727-0.3636 0.1818  plane waves:     453
 k-point ** :  -0.1818-0.3636 0.1818  plane waves:     456
 k-point ** :  -0.2727-0.2727 0.1818  plane waves:     455
 k-point ** :  -0.1818-0.2727 0.1818  plane waves:     457
 k-point ** :  -0.1818-0.1818 0.1818  plane waves:     464
 k-point ** :  -0.2727 0.2727 0.2727  plane waves:     456
 k-point ** :  -0.3636 0.3636 0.2727  plane waves:     447
 k-point ** :  -0.2727 0.3636 0.2727  plane waves:     448
 k-point ** :  -0.4545 0.4545 0.2727  plane waves:     449
 k-point ** :  -0.3636 0.4545 0.2727  plane waves:     450
 k-point ** :  -0.2727 0.4545 0.2727  plane waves:     452
 k-point ** :  -0.4545-0.4545 0.2727  plane waves:     452
 k-point ** :  -0.3636-0.4545 0.2727  plane waves:     452
 k-point ** :  -0.2727-0.4545 0.2727  plane waves:     455
 k-point ** :  -0.3636-0.3636 0.2727  plane waves:     453
 k-point ** :  -0.2727-0.3636 0.2727  plane waves:     452
 k-point ** :  -0.2727-0.2727 0.2727  plane waves:     456
 k-point ** :  -0.3636 0.3636 0.3636  plane waves:     450
 k-point ** :  -0.4545 0.4545 0.3636  plane waves:     453
 k-point ** :  -0.3636 0.4545 0.3636  plane waves:     454
 k-point ** :  -0.4545-0.4545 0.3636  plane waves:     455
 k-point ** :  -0.3636-0.4545 0.3636  plane waves:     456
 k-point ** :  -0.3636-0.3636 0.3636  plane waves:     440
 k-point ** :  -0.4545 0.4545 0.4545  plane waves:     460
 k-point ** :  -0.4545-0.4545 0.4545  plane waves:     460

 maximum and minimum number of plane-waves per node :       465      440

 maximum number of plane-waves:       465
 maximum index in each direction: 
   IXMAX=    6   IYMAX=    6   IZMAX=    5
   IXMIN=   -6   IYMIN=   -6   IZMIN=   -6


 serial   3D FFT for wavefunctions
 parallel 3D FFT for charge:
    minimum data exchange during FFTs selected (reduces bandwidth)


 total amount of memory used by VASP MPI-rank0    35618. kBytes
=======================================================================

   base      :      30000. kBytes
   nonl-proj :       3821. kBytes
   fftplans  :        247. kBytes
   grid      :        561. kBytes
   one-center:          6. kBytes
   wavefun   :        983. kBytes
 
     INWAV:  cpu time    0.0000: real time    0.0004
 Broyden mixing: mesh for mixing (old mesh)
   NGX = 11   NGY = 11   NGZ = 11
  (NGX  = 36   NGY  = 36   NGZ  = 36)
  gives a total of   1331 points

 initial charge density was supplied:
 charge density of overlapping atoms calculated
 number of electron       8.0000000 magnetization 
 keeping initial charge density in first step


--------------------------------------------------------------------------------------------------------


 Maximum index for augmentation-charges          911 (set IRDMAX)


--------------------------------------------------------------------------------------------------------


 First call to EWALD:  gamma=   0.567
 Maximum number of real-space cells 4x 4x 3
 Maximum number of reciprocal cells 3x 3x 3

    FEWALD:  cpu time    0.0080: real time    0.0111


--------------------------------------- Iteration      1(   1)  ---------------------------------------


    POTLOK:  cpu time    0.0320: real time    0.0440
    SETDIJ:  cpu time    0.0080: real time    0.0090
     EDDAV:  cpu time    1.4240: real time    1.4303
       DOS:  cpu time    0.0040: real time    0.0064
    --------------------------------------------
      LOOP:  cpu time    1.4680: real time    1.4921

 eigenvalue-minimisations  :  2024
 total energy-change (2. order) : 0.1808197E+01  (-0.2742234E+03)
 number of electron       8.0000000 magnetization 
 augmentation part        8.0000000 magnetization 

 Free energy of the ion-electron system (eV)
  ---------------------------------------------------
  alpha Z        PSCENC =         4.40202223
  Ewald energy   TEWEN  =      -265.18101312
  -Hartree energ DENC   =        -2.30415367
  -exchange      EXHF   =         0.00000000
  -V(xc)+E(xc)   XCENC  =       -17.81549222
  PAW double counting   =        65.95520812      -30.76852678
  entropy T*S    EENTRO =        -0.01093725
  eigenvalues    EBANDS =        41.39983580
  atomic energy  EATOM  =       206.13125414
  Solvation  Ediel_sol  =         0.00000000
  ---------------------------------------------------
  free energy    TOTEN  =         1.80819725 eV

  energy without entropy =        1.81913450  energy(sigma->0) =        1.81366588


--------------------------------------------------------------------------------------------------------




--------------------------------------- Iteration      1(   2)  ---------------------------------------


     EDDAV:  cpu time    2.0600: real time    2.1043
       DOS:  cpu time    0.0040: real time    0.0067
    --------------------------------------------
      LOOP:  cpu time    2.0640: real time    2.1112

 eigenvalue-minimisations  :  2984
 total energy-change (2. order) :-0.1192815E+02  (-0.1153408E+02)
 number of electron       8.0000000 magnetization 
 augmentation part        8.0000000 magnetization 

 Free energy of the ion-electron system (eV)
  ---------------------------------------------------
  alpha Z        PSCENC =         4.40202223
  Ewald energy   TEWEN  =      -265.18101312
  -Hartree energ DENC   =        -2.30415367
  -exchange      EXHF   =         0.00000000
  -V(xc)+E(xc)   XCENC  =       -17.81549222
  PAW double counting   =        65.95520812      -30.76852678
  entropy T*S    EENTRO =        -0.01522254
  eigenvalues    EBANDS =        29.47596998
  atomic energy  EATOM  =       206.13125414
  Solvation  Ediel_sol  =         0.00000000
  ---------------------------------------------------
  free energy    TOTEN  =       -10.11995386 eV

  energy without entropy =      -10.10473132  energy(sigma->0) =      -10.11234259


--------------------------------------------------------------------------------------------------------




--------------------------------------- Iteration      1(   3)  ---------------------------------------


     EDDAV:  cpu time    2.0200: real time    2.0828
       DOS:  cpu time    0.0040: real time    0.0097
    --------------------------------------------
      LOOP:  cpu time    2.0240: real time    2.0923

 eigenvalue-minimisations  :  2864
 total energy-change (2. order) :-0.1381741E+00  (-0.1374534E+00)
 number of electron       8.0000000 magnetization 
 augmentation part        8.0000000 magnetization 

 Free energy of the ion-electron system (eV)
  ---------------------------------------------------
  alpha Z        PSCENC =         4.40202223
  Ewald energy   TEWEN  =      -265.18101312
  -Hartree energ DENC   =        -2.30415367
  -exchange      EXHF   =         0.00000000
  -V(xc)+E(xc)   XCENC  =       -17.81549222
  PAW double counting   =        65.95520812      -30.76852678
  entropy T*S    EENTRO =        -0.01562862
  eigenvalues    EBANDS =        29.33820192
  atomic energy  EATOM  =       206.13125414
  Solvation  Ediel_sol  =         0.00000000
  ---------------------------------------------------
  free energy    TOTEN  =       -10.25812800 eV

  energy without entropy =      -10.24249938  energy(sigma->0) =      -10.25031369


--------------------------------------------------------------------------------------------------------




--------------------------------------- Iteration      1(   4)  ---------------------------------------


     EDDAV:  cpu time    2.0720: real time    2.1112
       DOS:  cpu time    0.0040: real time    0.0063
    --------------------------------------------
      LOOP:  cpu time    2.0760: real time    2.1171

 eigenvalue-minimisations  :  2968
 total energy-change (2. order) :-0.3211797E-03  (-0.3211579E-03)
 number of electron       8.0000000 magnetization 
 augmentation part        8.0000000 magnetization 

 Free energy of the ion-electron system (eV)
  ---------------------------------------------------
  alpha Z        PSCENC =         4.40202223
  Ewald energy   TEWEN  =      -265.18101312
  -Hartree energ DENC   =        -2.30415367
  -exchange      EXHF   =         0.00000000
  -V(xc)+E(xc)   XCENC  =       -17.81549222
  PAW double counting   =        65.95520812      -30.76852678
  entropy T*S    EENTRO =        -0.01563248
  eigenvalues    EBANDS =        29.33788460
  atomic energy  EATOM  =       206.13125414
  Solvation  Ediel_sol  =         0.00000000
  ---------------------------------------------------
  free energy    TOTEN  =       -10.25844918 eV

  energy without entropy =      -10.24281670  energy(sigma->0) =      -10.25063294


--------------------------------------------------------------------------------------------------------




--------------------------------------- Iteration      1(   5)  ---------------------------------------


     EDDAV:  cpu time    1.9880: real time    2.0217
       DOS:  cpu time    0.0080: real time    0.0064
    CHARGE:  cpu time    0.1040: real time    0.1053
    MIXING:  cpu time    0.0000: real time    0.0030
    --------------------------------------------
      LOOP:  cpu time    2.1000: real time    2.1367

 eigenvalue-minimisations  :  2832
 total energy-change (2. order) :-0.4446275E-06  (-0.4451121E-06)
 number of electron       7.9999995 magnetization 
 augmentation part       -0.4695520 magnetization 

 Broyden mixing:
  rms(total) = 0.14989E+00    rms(broyden)= 0.14988E+00
  rms(prec ) = 0.33513E+00
  weight for this iteration     100.00

 Free energy of the ion-electron system (eV)
  ---------------------------------------------------
  alpha Z        PSCENC =         4.40202223
  Ewald energy   TEWEN  =      -265.18101312
  -Hartree energ DENC   =        -2.30415367
  -exchange      EXHF   =         0.00000000
  -V(xc)+E(xc)   XCENC  =       -17.81549222
  PAW double counting   =        65.95520812      -30.76852678
  entropy T*S    EENTRO =        -0.01563248
  eigenvalues    EBANDS =        29.33788414
  atomic energy  EATOM  =       206.13125414
  Solvation  Ediel_sol  =         0.00000000
  ---------------------------------------------------
  free energy    TOTEN  =       -10.25844963 eV

  energy without entropy =      -10.24281715  energy(sigma->0) =      -10.25063339


--------------------------------------------------------------------------------------------------------




--------------------------------------- Iteration      1(   6)  ---------------------------------------


    POTLOK:  cpu time    0.0280: real time    0.0677
    SETDIJ:  cpu time    0.0080: real time    0.0087
     EDDAV:  cpu time    1.7920: real time    1.7929
       DOS:  cpu time    0.0040: real time    0.0075
    CHARGE:  cpu time    0.1040: real time    0.1043
    MIXING:  cpu time    0.0000: real time    0.0027
    --------------------------------------------
      LOOP:  cpu time    1.9400: real time    1.9838

 eigenvalue-minimisations  :  2576
 total energy-change (2. order) : 0.4461446E-02  (-0.1787709E-03)
 number of electron       7.9999995 magnetization 
 augmentation part       -0.4711427 magnetization 

 Broyden mixing:
  rms(total) = 0.93819E-01    rms(broyden)= 0.93819E-01
  rms(prec ) = 0.21000E+00
  weight for this iteration     100.00

 eigenvalues of (default mixing * dielectric matrix)
  average eigenvalue GAMMA=   2.6689
  2.6689

 Free energy of the ion-electron system (eV)
  ---------------------------------------------------
  alpha Z        PSCENC =         4.40202223
  Ewald energy   TEWEN  =      -265.18101312
  -Hartree energ DENC   =        -2.33149136
  -exchange      EXHF   =         0.00000000
  -V(xc)+E(xc)   XCENC  =       -17.73518121
  PAW double counting   =        67.66059772      -32.51014726
  entropy T*S    EENTRO =        -0.01565642
  eigenvalues    EBANDS =        29.32562709
  atomic energy  EATOM  =       206.13125414
  Solvation  Ediel_sol  =         0.00000000
  ---------------------------------------------------
  free energy    TOTEN  =       -10.25398818 eV

  energy without entropy =      -10.23833176  energy(sigma->0) =      -10.24615997


--------------------------------------------------------------------------------------------------------




--------------------------------------- Iteration      1(   7)  ---------------------------------------


    POTLOK:  cpu time    0.0280: real time    0.0672
    SETDIJ:  cpu time    0.0080: real time    0.0087
     EDDAV:  cpu time    1.6160: real time    1.6166
       DOS:  cpu time    0.0040: real time    0.0064
    CHARGE:  cpu time    0.1040: real time    0.1042
    MIXING:  cpu time    0.0000: real time    0.0026
    --------------------------------------------
      LOOP:  cpu time    1.7560: real time    1.8050

 eigenvalue-minimisations  :  2320
 total energy-change (2. order) : 0.3747806E-02  (-0.5287951E-03)
 number of electron       7.9999995 magnetization 
 augmentation part       -0.4741402 magnetization 

 Broyden mixing:
  rms(total) = 0.33281E-02    rms(broyden)= 0.33277E-02
  rms(prec ) = 0.85728E-02
  weight for this iteration     100.00

 eigenvalues of (default mixing * dielectric matrix)
  average eigenvalue GAMMA=   2.6020
  2.6020  2.6020

 Free energy of the ion-electron system (eV)
  ---------------------------------------------------
  alpha Z        PSCENC =         4.40202223
  Ewald energy   TEWEN  =      -265.18101312
  -Hartree energ DENC   =        -2.47341441
  -exchange      EXHF   =         0.00000000
  -V(xc)+E(xc)   XCENC  =       -17.58307607
  PAW double counting   =        70.38139382      -35.29281025
  entropy T*S    EENTRO =        -0.01570501
  eigenvalues    EBANDS =        29.38110829
  atomic energy  EATOM  =       206.13125414
  Solvation  Ediel_sol  =         0.00000000
  ---------------------------------------------------
  free energy    TOTEN  =       -10.25024037 eV

  energy without entropy =      -10.23453536  energy(sigma->0) =      -10.24238787


--------------------------------------------------------------------------------------------------------




--------------------------------------- Iteration      1(   8)  ---------------------------------------


    POTLOK:  cpu time    0.0280: real time    0.0357
    SETDIJ:  cpu time    0.0080: real time    0.0077
     EDDAV:  cpu time    1.2000: real time    1.1995
       DOS:  cpu time    0.0040: real time    0.0065
    --------------------------------------------
      LOOP:  cpu time    1.2400: real time    1.2503

 eigenvalue-minimisations  :  1536
 total energy-change (2. order) : 0.1476335E-04  (-0.8392229E-05)
 number of electron       7.9999995 magnetization 
 augmentation part       -0.4741402 magnetization 

 Free energy of the ion-electron system (eV)
  ---------------------------------------------------
  alpha Z        PSCENC =         4.40202223
  Ewald energy   TEWEN  =      -265.18101312
  -Hartree energ DENC   =        -2.49234811
  -exchange      EXHF   =         0.00000000
  -V(xc)+E(xc)   XCENC  =       -17.58384675
  PAW double counting   =        70.18238108      -35.09398853
  entropy T*S    EENTRO =        -0.01569220
  eigenvalues    EBANDS =        29.40100564
  atomic energy  EATOM  =       206.13125414
  Solvation  Ediel_sol  =         0.00000000
  ---------------------------------------------------
  free energy    TOTEN  =       -10.25022561 eV

  energy without entropy =      -10.23453341  energy(sigma->0) =      -10.24237951


--------------------------------------------------------------------------------------------------------




 average (electrostatic) potential at core
  the test charge radii are     0.9892
  (the norm of the test charge is              1.0000)
       1 -80.5478       2 -80.5478
 
 
 
 E-fermi :   9.1052     XC(G=0): -10.8918     alpha+bet :-15.6819


 k-point     1 :       0.0000    0.0000    0.0000
  band No.  band energies     occupation 
      1      -4.6162      2.00000
      2       6.1799      2.00000
      3       6.2975      2.00000
      4       6.2975      2.00000
      5      10.5154      0.00000
      6      16.7532      0.00000
      7      17.3654      0.00000
      8      17.3654      0.00000

 k-point     2 :       0.0909   -0.0000    0.0000
  band No.  band energies     occupation 
      1      -4.3828      2.00000
      2       5.4263      2.00000
      3       6.2522      2.00000
      4       7.4598      2.00000
      5      10.9977      0.00000
      6      15.5261      0.00000
      7      16.5995      0.00000
      8      17.3757      0.00000

 k-point     3 :       0.1818   -0.0000    0.0000
  band No.  band energies     occupation 
      1      -3.6844      2.00000
      2       5.0463      2.00000
      3       6.2503      2.00000
      4       8.9925      1.57425
      5      12.2820      0.00000
      6      13.4136      0.00000
      7      13.8098      0.00000
      8      15.8233      0.00000

 k-point     4 :       0.2727   -0.0000    0.0000
  band No.  band energies     occupation 
      1      -2.5271      2.00000
      2       5.0973      2.00000
      3       6.4752      2.00000
      4       9.3016      0.16480
      5      11.3735      0.00000
      6      12.0860      0.00000
      7      13.5889      0.00000
      8      14.5270      0.00000

 k-point     5 :       0.3636   -0.0000    0.0000
  band No.  band energies     occupation 
      1      -0.9222      2.00000
      2       5.5188      2.00000
      3       6.5140      2.00000
      4       6.9863      2.00000
      5       9.6453      0.00013
      6      12.0377      0.00000
      7      13.6792      0.00000
      8      13.8223      0.00000

 k-point     6 :       0.4545   -0.0000   -0.0000
  band No.  band energies     occupation 
      1       1.1005      2.00000
      2       3.6082      2.00000
      3       6.4750      2.00000
      4       7.6234      2.00000
      5       8.0358      2.00000
      6      10.6123      0.00000
      7      13.5221      0.00000
      8      14.4998      0.00000

 k-point     7 :       0.0909    0.0909    0.0000
  band No.  band energies     occupation 
      1      -3.7824      2.00000
      2       5.3583      2.00000
      3       7.0105      2.00000
      4       8.0649      2.00000
      5      11.8282      0.00000
      6      13.8493      0.00000
      7      13.9817      0.00000
      8      16.3512      0.00000

 k-point     8 :       0.1818    0.0909   -0.0000
  band No.  band energies     occupation 
      1      -2.7217      2.00000
      2       5.3865      2.00000
      3       7.4870      2.00000
      4       9.2133      0.44443
      5      11.0135      0.00000
      6      11.5433      0.00000
      7      13.4115      0.00000
      8      14.6302      0.00000

 k-point     9 :       0.2727    0.0909    0.0000
  band No.  band energies     occupation 
      1      -1.2106      2.00000
      2       5.7737      2.00000
      3       7.1104      2.00000
      4       7.8444      2.00000
      5       9.2855      0.20236
      6      12.0365      0.00000
      7      12.4960      0.00000
      8      13.9406      0.00000

 k-point    10 :       0.3636    0.0909    0.0000
  band No.  band energies     occupation 
      1       0.7287      2.00000
      2       4.2407      2.00000
      3       6.5872      2.00000
      4       6.9836      2.00000
      5       8.7831      1.97725
      6      10.8644      0.00000
      7      12.8131      0.00000
      8      14.9409      0.00000

 k-point    11 :       0.4545    0.0909   -0.0000
  band No.  band energies     occupation 
      1       1.6461      2.00000
      2       3.1606      2.00000
      3       5.6075      2.00000
      4       7.4306      2.00000
      5       8.5534      1.99990
      6      11.1961      0.00000
      7      12.5575      0.00000
      8      15.5429      0.00000

 k-point    12 :      -0.4545    0.0909   -0.0000
  band No.  band energies     occupation 
      1      -0.4434      2.00000
      2       4.5080      2.00000
      3       5.9456      2.00000
      4       7.0079      2.00000
      5       9.6387      0.00016
      6      12.3303      0.00000
      7      13.0121      0.00000
      8      14.8001      0.00000

 k-point    13 :      -0.3636    0.0909    0.0000
  band No.  band energies     occupation 
      1      -2.1389      2.00000
      2       3.9391      2.00000
      3       6.4310      2.00000
      4       8.9163      1.81828
      5      11.2607      0.00000
      6      12.5058      0.00000
      7      13.3601      0.00000
      8      14.7629      0.00000

 k-point    14 :      -0.2727    0.0909    0.0000
  band No.  band energies     occupation 
      1      -3.3909      2.00000
      2       3.7708      2.00000
      3       6.2011      2.00000
      4       9.8745      0.00000
      5      12.5668      0.00000
      6      13.0615      0.00000
      7      13.6775      0.00000
      8      15.2874      0.00000

 k-point    15 :      -0.1818    0.0909    0.0000
  band No.  band energies     occupation 
      1      -4.1862      2.00000
      2       4.0281      2.00000
      3       6.2716      2.00000
      4       8.4262      2.00000
      5      12.0925      0.00000
      6      14.0377      0.00000
      7      15.9654      0.00000
      8      17.0410      0.00000

 k-point    16 :      -0.0909    0.0909    0.0000
  band No.  band energies     occupation 
      1      -4.5177      2.00000
      2       4.6798      2.00000
      3       6.3885      2.00000
      4       7.4414      2.00000
      5      11.1306      0.00000
      6      15.2396      0.00000
      7      16.5951      0.00000
      8      18.8846      0.00000

 k-point    17 :       0.1818    0.1818    0.0000
  band No.  band energies     occupation 
      1      -1.3069      2.00000
      2       5.7685      2.00000
      3       7.7406      2.00000
      4       7.8512      2.00000
      5       9.4895      0.00658
      6      11.3331      0.00000
      7      12.9181      0.00000
      8      13.0689      0.00000

 k-point    18 :       0.2727    0.1818    0.0000
  band No.  band energies     occupation 
      1       0.5414      2.00000
      2       5.0395      2.00000
      3       5.9792      2.00000
      4       6.5218      2.00000
      5       9.7745      0.00000
      6      11.5183      0.00000
      7      12.2071      0.00000
      8      13.5921      0.00000

 k-point    19 :       0.3636    0.1818   -0.0000
  band No.  band energies     occupation 
      1       2.3021      2.00000
      2       2.9559      2.00000
      3       4.4763      2.00000
      4       7.4202      2.00000
      5       9.0864      1.10569
      6      11.1429      0.00000
      7      12.8084      0.00000
      8      15.9292      0.00000

 k-point    20 :       0.4545    0.1818   -0.0000
  band No.  band energies     occupation 
      1       0.2227      2.00000
      2       3.2594      2.00000
      3       5.5710      2.00000
      4       7.4718      2.00000
      5       9.3659      0.06525
      6      11.3706      0.00000
      7      14.1048      0.00000
      8      15.6720      0.00000

 k-point    21 :      -0.4545    0.1818   -0.0000
  band No.  band energies     occupation 
      1      -1.5589      2.00000
      2       2.5649      2.00000
      3       6.8764      2.00000
      4       8.5542      1.99990
      5      10.4660      0.00000
      6      12.4455      0.00000
      7      13.2765      0.00000
      8      15.9107      0.00000

 k-point    22 :      -0.3636    0.1818    0.0000
  band No.  band energies     occupation 
      1      -2.9031      2.00000
      2       2.2955      2.00000
      3       6.6008      2.00000
      4      10.4452      0.00000
      5      11.4126      0.00000
      6      12.6068      0.00000
      7      14.4291      0.00000
      8      15.9522      0.00000

 k-point    23 :      -0.2727    0.1818   -0.0000
  band No.  band energies     occupation 
      1      -3.7938      2.00000
      2       2.4636      2.00000
      3       6.6194      2.00000
      4       9.1282      0.87080
      5      12.5146      0.00000
      6      13.9340      0.00000
      7      14.9155      0.00000
      8      16.5370      0.00000

 k-point    24 :      -0.1818    0.1818    0.0000
  band No.  band energies     occupation 
      1      -4.2227      2.00000
      2       3.0580      2.00000
      3       6.6618      2.00000
      4       8.2178      2.00000
      5      12.7457      0.00000
      6      13.5873      0.00000
      7      15.2797      0.00000
      8      19.3240      0.00000

 k-point    25 :       0.2727    0.2727   -0.0000
  band No.  band energies     occupation 
      1       2.5794      2.00000
      2       3.3592      2.00000
      3       3.5529      2.00000
      4       7.4119      2.00000
      5       9.5035      0.00486
      6      10.5729      0.00000
      7      13.9927      0.00000
      8      14.8307      0.00000

 k-point    26 :       0.3636    0.2727   -0.0000
  band No.  band energies     occupation 
      1       1.0705      2.00000
      2       2.0906      2.00000
      3       5.3872      2.00000
      4       8.0089      2.00000
      5       9.0185      1.46019
      6      10.7061      0.00000
      7      15.3815      0.00000
      8      16.2056      0.00000

 k-point    27 :       0.4545    0.2727    0.0000
  band No.  band energies     occupation 
      1      -0.7905      2.00000
      2       1.2859      2.00000
      3       7.5187      2.00000
      4       8.3258      2.00000
      5       9.4966      0.00564
      6      12.0614      0.00000
      7      13.9715      0.00000
      8      15.8529      0.00000

 k-point    28 :      -0.4545    0.2727    0.0000
  band No.  band energies     occupation 
      1      -2.2233      2.00000
      2       0.9187      2.00000
      3       7.2184      2.00000
      4      10.0829      0.00000
      5      10.9710      0.00000
      6      12.5082      0.00000
      7      14.1869      0.00000
      8      14.9393      0.00000

 k-point    29 :      -0.3636    0.2727   -0.0000
  band No.  band energies     occupation 
      1      -3.2073      2.00000
      2       0.9977      2.00000
      3       7.1630      2.00000
      4       9.8095      0.00000
      5      11.1228      0.00000
      6      13.7051      0.00000
      7      15.7022      0.00000
      8      16.3328      0.00000

 k-point    30 :      -0.2727    0.2727   -0.0000
  band No.  band energies     occupation 
      1      -3.7324      2.00000
      2       1.5186      2.00000
      3       7.1169      2.00000
      4       8.8766      1.89391
      5      12.0807      0.00000
      6      13.9271      0.00000
      7      14.8786      0.00000
      8      19.0664      0.00000

 k-point    31 :       0.3636    0.3636    0.0000
  band No.  band energies     occupation 
      1       0.1565      2.00000
      2       0.1653      2.00000
      3       8.0209      2.00000
      4       8.3093      2.00000
      5       8.8070      1.96501
      6      11.9376      0.00000
      7      14.5196      0.00000
      8      15.3106      0.00000

 k-point    32 :       0.4545    0.3636   -0.0000
  band No.  band energies     occupation 
      1      -1.3553      2.00000
      2      -0.3047      2.00000
      3       8.0194      2.00000
      4       8.9891      1.58825
      5      11.1319      0.00000
      6      12.7890      0.00000
      7      14.0225      0.00000
      8      14.0709      0.00000

 k-point    33 :      -0.4545    0.3636   -0.0000
  band No.  band energies     occupation 
      1      -2.4294      2.00000
      2      -0.3184      2.00000
      3       7.8901      2.00000
      4       9.8735      0.00000
      5      10.5968      0.00000
      6      12.5606      0.00000
      7      15.7448      0.00000
      8      16.4893      0.00000

 k-point    34 :      -0.3636    0.3636    0.0000
  band No.  band energies     occupation 
      1      -3.0488      2.00000
      2       0.1186      2.00000
      3       7.7533      2.00000
      4       9.6100      0.00036
      5      10.7375      0.00000
      6      12.6503      0.00000
      7      17.1807      0.00000
      8      18.8928      0.00000

 k-point    35 :       0.4545    0.4545   -0.0000
  band No.  band energies     occupation 
      1      -1.4646      2.00000
      2      -1.4640      2.00000
      3       8.7841      1.97681
      4       8.8074      1.96477
      5      11.4516      0.00000
      6      11.5743      0.00000
      7      15.6762      0.00000
      8      16.4561      0.00000

 k-point    36 :      -0.4545    0.4545   -0.0000
  band No.  band energies     occupation 
      1      -2.1754      2.00000
      2      -1.1170      2.00000
      3       8.5702      1.99984
      4       9.5660      0.00112
      5      10.4782      0.00000
      6      11.4938      0.00000
      7      18.7862      0.00000
      8      18.8229      0.00000

 k-point    37 :       0.0909    0.0909    0.0909
  band No.  band energies     occupation 
      1      -3.4885      2.00000
      2       3.7540      2.00000
      3       7.2759      2.00000
      4       8.8257      1.95184
      5      12.8118      0.00000
      6      13.4223      0.00000
      7      13.7162      0.00000
      8      15.4621      0.00000

 k-point    38 :       0.1818    0.0909    0.0909
  band No.  band energies     occupation 
      1      -2.3324      2.00000
      2       3.8566      2.00000
      3       7.7855      2.00000
      4       9.3461      0.08841
      5      10.8329      0.00000
      6      11.2937      0.00000
      7      14.2631      0.00000
      8      15.1427      0.00000

 k-point    39 :       0.2727    0.0909    0.0909
  band No.  band energies     occupation 
      1      -0.7294      2.00000
      2       4.3657      2.00000
      3       6.6080      2.00000
      4       7.9011      2.00000
      5       9.3486      0.08526
      6      12.7505      0.00000
      7      13.3502      0.00000
      8      14.1441      0.00000

 k-point    40 :       0.3636    0.0909    0.0909
  band No.  band energies     occupation 
      1       1.2905      2.00000
      2       3.7795      2.00000
      3       5.3566      2.00000
      4       6.6407      2.00000
      5       9.5935      0.00055
      6      11.7482      0.00000
      7      13.7318      0.00000
      8      14.4324      0.00000

 k-point    41 :      -0.0909    0.0909    0.0909
  band No.  band energies     occupation 
      1      -4.4194      2.00000
      2       4.3616      2.00000
      3       5.6007      2.00000
      4       8.4376      2.00000
      5      11.5896      0.00000
      6      14.0406      0.00000
      7      17.5268      0.00000
      8      18.0799      0.00000

 k-point    42 :       0.1818    0.1818    0.0909
  band No.  band energies     occupation 
      1      -0.8249      2.00000
      2       4.3018      2.00000
      3       7.3497      2.00000
      4       7.4327      2.00000
      5       9.9758      0.00000
      6      11.8652      0.00000
      7      13.9894      0.00000
      8      14.2284      0.00000

 k-point    43 :       0.2727    0.1818    0.0909
  band No.  band energies     occupation 
      1       1.1081      2.00000
      2       4.5561      2.00000
      3       5.1913      2.00000
      4       5.6372      2.00000
      5      10.7394      0.00000
      6      12.6830      0.00000
      7      13.2241      0.00000
      8      14.1399      0.00000

 k-point    44 :       0.3636    0.1818    0.0909
  band No.  band energies     occupation 
[...]
      4       8.0042      2.00000
      5      13.0029      0.00000
      6      14.8775      0.00000
      7      17.2211      0.00000
      8      17.9427      0.00000

 k-point    92 :      -0.1818    0.3636    0.1818
  band No.  band energies     occupation 
      1      -2.1317      2.00000
      2       2.3852      2.00000
      3       4.0843      2.00000
      4       8.4270      2.00000
      5      10.7490      0.00000
      6      14.7286      0.00000
      7      16.3466      0.00000
      8      16.8951      0.00000

 k-point    93 :      -0.4545    0.4545    0.1818
  band No.  band energies     occupation 
      1      -1.8001      2.00000
      2      -0.7566      2.00000
      3       5.7692      2.00000
      4       6.7754      2.00000
      5      13.7105      0.00000
      6      14.6583      0.00000
      7      17.9025      0.00000
      8      17.9851      0.00000

 k-point    94 :      -0.3636    0.4545    0.1818
  band No.  band energies     occupation 
      1      -1.8615      2.00000
      2       0.1936      2.00000
      3       4.7407      2.00000
      4       6.7291      2.00000
      5      13.3004      0.00000
      6      15.1622      0.00000
      7      17.0482      0.00000
      8      18.4818      0.00000

 k-point    95 :      -0.2727    0.4545    0.1818
  band No.  band energies     occupation 
      1      -1.4630      2.00000
      2       1.5036      2.00000
      3       4.2222      2.00000
      4       7.0897      2.00000
      5      10.4620      0.00000
      6      15.8116      0.00000
      7      16.4628      0.00000
      8      18.1193      0.00000

 k-point    96 :      -0.1818    0.4545    0.1818
  band No.  band energies     occupation 
      1      -0.6090      2.00000
      2       2.8309      2.00000
      3       4.5418      2.00000
      4       7.4576      2.00000
      5       7.9872      2.00000
      6      14.0824      0.00000
      7      15.6847      0.00000
      8      16.8825      0.00000

 k-point    97 :      -0.4545   -0.4545    0.1818
  band No.  band energies     occupation 
      1      -0.9161      2.00000
      2      -0.9128      2.00000
      3       5.6333      2.00000
      4       5.6353      2.00000
      5      13.3530      0.00000
      6      15.5262      0.00000
      7      16.4865      0.00000
      8      18.5297      0.00000

 k-point    98 :      -0.3636   -0.4545    0.1818
  band No.  band energies     occupation 
      1      -0.6149      2.00000
      2       0.3947      2.00000
      3       4.9402      2.00000
      4       5.9173      2.00000
      5      10.3077      0.00000
      6      16.3149      0.00000
      7      16.7665      0.00000
      8      17.9305      0.00000

 k-point    99 :      -0.2727   -0.4545    0.1818
  band No.  band energies     occupation 
      1       0.1383      2.00000
      2       2.0529      2.00000
      3       4.7591      2.00000
      4       6.5678      2.00000
      5       7.3837      2.00000
      6      14.3324      0.00000
      7      16.6356      0.00000
      8      17.8821      0.00000

 k-point   100 :      -0.1818   -0.4545    0.1818
  band No.  band energies     occupation 
      1       1.3299      2.00000
      2       3.6456      2.00000
      3       4.7631      2.00000
      4       5.4090      2.00000
      5       7.6917      2.00000
      6      12.4173      0.00000
      7      13.8856      0.00000
      8      17.4547      0.00000

 k-point   101 :      -0.3636   -0.3636    0.1818
  band No.  band energies     occupation 
      1       1.0352      2.00000
      2       1.0576      2.00000
      3       5.5410      2.00000
      4       5.5580      2.00000
      5       7.2695      2.00000
      6      14.3389      0.00000
      7      17.6712      0.00000
      8      17.8443      0.00000

 k-point   102 :      -0.2727   -0.3636    0.1818
  band No.  band energies     occupation 
      1       2.1254      2.00000
      2       3.0097      2.00000
      3       4.5272      2.00000
      4       5.7337      2.00000
      5       6.6073      2.00000
      6      12.6700      0.00000
      7      14.9204      0.00000
      8      16.5195      0.00000

 k-point   103 :      -0.1818   -0.3636    0.1818
  band No.  band energies     occupation 
      1       2.0239      2.00000
      2       3.7464      2.00000
      3       5.1183      2.00000
      4       6.6368      2.00000
      5       7.8671      2.00000
      6      11.1915      0.00000
      7      12.3956      0.00000
      8      14.8097      0.00000

 k-point   104 :      -0.2727   -0.2727    0.1818
  band No.  band energies     occupation 
      1       1.9395      2.00000
      2       4.4971      2.00000
      3       4.5800      2.00000
      4       6.9770      2.00000
      5       7.0634      2.00000
      6      11.4082      0.00000
      7      13.1818      0.00000
      8      13.8370      0.00000

 k-point   105 :      -0.1818   -0.2727    0.1818
  band No.  band energies     occupation 
      1      -0.0294      2.00000
      2       6.3310      2.00000
      3       6.8050      2.00000
      4       7.9843      2.00000
      5       8.2582      2.00000
      6      10.5507      0.00000
      7      11.4615      0.00000
      8      12.2218      0.00000

 k-point   106 :      -0.1818   -0.1818    0.1818
  band No.  band energies     occupation 
      1      -1.6940      2.00000
      2       8.1776      2.00000
      3       8.3802      2.00000
      4       8.3802      2.00000
      5       9.0023      1.53280
      6      10.0309      0.00000
      7      11.9760      0.00000
      8      11.9760      0.00000

 k-point   107 :      -0.2727    0.2727    0.2727
  band No.  band energies     occupation 
      1      -2.8609      2.00000
      2       1.6733      2.00000
      3       3.3995      2.00000
      4       7.8026      2.00000
      5      13.5444      0.00000
      6      16.7767      0.00000
      7      17.0916      0.00000
      8      18.1441      0.00000

 k-point   108 :      -0.3636    0.3636    0.2727
  band No.  band energies     occupation 
      1      -2.1897      2.00000
      2       0.7884      2.00000
      3       3.5357      2.00000
      4       6.4347      2.00000
      5      14.6247      0.00000
      6      16.6587      0.00000
      7      17.8551      0.00000
      8      18.6995      0.00000

 k-point   109 :      -0.2727    0.3636    0.2727
  band No.  band energies     occupation 
      1      -2.0564      2.00000
      2       1.4142      2.00000
      3       3.1751      2.00000
      4       6.5576      2.00000
      5      13.3177      0.00000
      6      15.9166      0.00000
      7      18.4189      0.00000
      8      19.3203      0.00000

 k-point   110 :      -0.4545    0.4545    0.2727
  band No.  band energies     occupation 
      1      -1.3383      2.00000
      2      -0.3248      2.00000
      3       4.2585      2.00000
      4       5.2453      2.00000
      5      15.4343      0.00000
      6      16.1042      0.00000
      7      17.9275      0.00000
      8      18.2238      0.00000

 k-point   111 :      -0.3636    0.4545    0.2727
  band No.  band energies     occupation 
      1      -1.3028      2.00000
      2       0.6288      2.00000
      3       3.3942      2.00000
      4       5.2820      2.00000
      5      13.2296      0.00000
      6      16.9562      0.00000
      7      18.9562      0.00000
      8      19.5100      0.00000

 k-point   112 :      -0.2727    0.4545    0.2727
  band No.  band energies     occupation 
      1      -0.8086      2.00000
      2       1.6100      2.00000
      3       3.3805      2.00000
      4       5.7423      2.00000
      5      10.1481      0.00000
      6      17.0987      0.00000
      7      17.8485      0.00000
      8      18.5855      0.00000

 k-point   113 :      -0.4545   -0.4545    0.2727
  band No.  band energies     occupation 
      1      -0.3891      2.00000
      2      -0.3844      2.00000
      3       4.2049      2.00000
      4       4.2061      2.00000
      5      13.1804      0.00000
      6      17.5768      0.00000
      7      18.4267      0.00000
      8      19.5443      0.00000

 k-point   114 :      -0.3636   -0.4545    0.2727
  band No.  band energies     occupation 
      1       0.0083      2.00000
      2       0.9246      2.00000
      3       3.6861      2.00000
      4       4.5837      2.00000
      5       9.9846      0.00000
      6      17.5649      0.00000
      7      18.6515      0.00000
      8      19.4020      0.00000

 k-point   115 :      -0.2727   -0.4545    0.2727
  band No.  band energies     occupation 
      1       0.8541      2.00000
      2       2.2532      2.00000
      3       4.0152      2.00000
      4       5.3742      2.00000
      5       7.0814      2.00000
      6      15.3941      0.00000
      7      16.8700      0.00000
      8      18.5067      0.00000

 k-point   116 :      -0.3636   -0.3636    0.2727
  band No.  band energies     occupation 
      1       1.6526      2.00000
      2       1.6852      2.00000
      3       4.4000      2.00000
      4       4.4095      2.00000
      5       6.9860      2.00000
      6      15.7046      0.00000
      7      17.6411      0.00000
      8      17.9268      0.00000

 k-point   117 :      -0.2727   -0.3636    0.2727
  band No.  band energies     occupation 
      1       2.8057      2.00000
      2       3.2792      2.00000
      3       4.4313      2.00000
      4       5.0664      2.00000
      5       5.5652      2.00000
      6      13.8503      0.00000
      7      14.9450      0.00000
      8      15.8021      0.00000

 k-point   118 :      -0.2727   -0.2727    0.2727
  band No.  band energies     occupation 
      1       1.8508      2.00000
      2       4.8866      2.00000
      3       4.9865      2.00000
      4       6.4841      2.00000
      5       6.4841      2.00000
      6      12.4717      0.00000
      7      13.0803      0.00000
      8      13.0803      0.00000

 k-point   119 :      -0.3636    0.3636    0.3636
  band No.  band energies     occupation 
      1      -1.5330      2.00000
      2       0.8922      2.00000
      3       2.6900      2.00000
      4       5.0674      2.00000
      5      15.7246      0.00000
      6      16.5783      0.00000
      7      18.3236      0.00000
      8      19.8361      0.00000

 k-point   120 :      -0.4545    0.4545    0.3636
  band No.  band energies     occupation 
      1      -0.7132      2.00000
      2       0.2055      2.00000
      3       2.9949      2.00000
      4       3.8979      2.00000
      5      16.1495      0.00000
      6      16.3685      0.00000
      7      18.9878      0.00000
      8      19.6743      0.00000

 k-point   121 :      -0.3636    0.4545    0.3636
  band No.  band energies     occupation 
      1      -0.5810      2.00000
      2       0.8274      2.00000
      3       2.6384      2.00000
      4       4.0247      2.00000
      5      13.0605      0.00000
      6      18.5042      0.00000
      7      19.9202      0.00000
      8      20.3121      0.00000

 k-point   122 :      -0.4545   -0.4545    0.3636
  band No.  band energies     occupation 
      1       0.2365      2.00000
      2       0.2431      2.00000
      3       3.0314      2.00000
      4       3.0327      2.00000
      5      12.9950      0.00000
      6      19.1846      0.00000
      7      20.1859      0.00000
      8      20.2405      0.00000

 k-point   123 :      -0.3636   -0.4545    0.3636
  band No.  band energies     occupation 
      1       0.7305      2.00000
      2       1.2201      2.00000
      3       3.0223      2.00000
      4       3.5054      2.00000
      5       9.8176      0.00000
      6      18.4893      0.00000
      7      19.7632      0.00000
      8      19.8818      0.00000

 k-point   124 :      -0.3636   -0.3636    0.3636
  band No.  band energies     occupation 
      1       2.0381      2.00000
      2       2.0814      2.00000
      3       3.8376      2.00000
      4       3.8376      2.00000
      5       6.8929      2.00000
      6      16.5982      0.00000
      7      17.5618      0.00000
      8      17.5618      0.00000

 k-point   125 :      -0.4545    0.4545    0.4545
  band No.  band energies     occupation 
      1       0.0104      2.00000
      2       0.4994      2.00000
      3       2.3293      2.00000
      4       2.8129      2.00000
      5      16.2478      0.00000
      6      16.2992      0.00000
      7      20.3522      0.00000
      8      20.8801      0.00000

 k-point   126 :      -0.4545   -0.4545    0.4545
  band No.  band energies     occupation 
      1       0.6269      2.00000
      2       0.6353      2.00000
      3       2.4576      2.00000
      4       2.4576      2.00000
      5      12.9259      0.00000
      6      19.6103      0.00000
      7      20.9472      0.00000
      8      21.0356      0.00000


--------------------------------------------------------------------------------------------------------


 soft charge-density along one line, spin component           1
         0         1         2         3         4         5         6         7         8         9
 total charge-density along one line
 
 pseudopotential strength for first ion, spin component:           1
 18.064  -0.003   0.000  -0.000  -0.000  -0.000   0.000   0.000
 -0.003   0.005  -0.000   0.000   0.000   0.000  -0.000  -0.000
  0.000  -0.000   4.116   0.000   0.000  -0.006  -0.000  -0.000
 -0.000   0.000   0.000   4.117   0.000  -0.000  -0.006  -0.000
 -0.000   0.000   0.000   0.000   4.116  -0.000  -0.000  -0.006
 -0.000   0.000  -0.006  -0.000  -0.000   0.005   0.000   0.000
  0.000  -0.000  -0.000  -0.006  -0.000   0.000   0.005   0.000
  0.000  -0.000  -0.000  -0.000  -0.006   0.000   0.000   0.005
 total augmentation occupancy for first ion, spin component:           1
  1.616  -0.468   0.000   0.000  -0.000   0.000   0.000  -0.000
 -0.468   0.895   0.000   0.000   0.000   0.000   0.000  -0.000
  0.000   0.000   0.897   0.000  -0.000  -0.474   0.000   0.000
  0.000   0.000   0.000   0.864   0.000  -0.000  -0.488   0.000
  0.000   0.000  -0.000   0.000   0.897   0.000   0.000  -0.474
  0.000   0.000  -0.474   0.000   0.000   0.330   0.000  -0.000
  0.000   0.000  -0.000  -0.488   0.000   0.000   0.362  -0.000
 -0.000  -0.000   0.000   0.000  -0.474  -0.000  -0.000   0.330


------------------------ aborting loop because EDIFF is reached ----------------------------------------


    CHARGE:  cpu time    0.1040: real time    0.1036
    FORLOC:  cpu time    0.0040: real time    0.0009
    FORNL :  cpu time    0.0320: real time    0.0353
    STRESS:  cpu time    0.4080: real time    0.4073
    FORCOR:  cpu time    0.0200: real time    0.0204
    FORHAR:  cpu time    0.0040: real time    0.0056
    MIXING:  cpu time    0.0040: real time    0.0014
    OFIELD:  cpu time    0.0000: real time    0.0013

  FORCE on cell =-STRESS in cart. coord.  units (eV):
  Direction    XX          YY          ZZ          XY          YZ          ZX
  --------------------------------------------------------------------------------------
  Alpha Z     4.40202     4.40202     4.40202
  Ewald     -90.96023   -90.96023   -83.26083    -0.00000     0.00000     0.00000
  Hartree     0.55274     0.55274     1.39066    -0.00000    -0.00000    -0.00000
  E(xc)     -25.41256   -25.41256   -25.36793    -0.00000     0.00000     0.00000
  Local     -11.14261   -11.14261   -17.42722    -0.00002    -0.00002    -0.00002
  n-local    76.97486    76.75192    76.48375     1.06939    -0.32881    -0.45324
  augment   -12.09562   -12.09562   -11.99604     0.00002     0.00002     0.00002
  Kinetic    59.80515    54.97737    56.70260     3.70640    -1.71782    -3.37049
  Fock        0.00000     0.00000     0.00000     0.00000     0.00000     0.00000
  -------------------------------------------------------------------------------------
  Total      -0.40161    -0.40161     0.92701    -0.00000     0.00000     0.00000
  in kB     -21.03550   -21.03550    48.55495    -0.00000     0.00000     0.00000
  external pressure =        2.16 kB  Pullay stress =        0.00 kB


 VOLUME and BASIS-vectors are now :
 -----------------------------------------------------------------------------
  energy-cutoff  :      350.00
  volume of cell :       30.59
      direct lattice vectors                 reciprocal lattice vectors
    -2.450000000  2.450000000  1.274000000     0.000000000  0.204081633  0.392464678
     2.450000000 -2.450000000  1.274000000     0.204081633  0.000000000  0.392464678
     2.450000000  2.450000000 -1.274000000     0.204081633  0.204081633 -0.000000000

  length of vectors
     3.691622408  3.691622408  3.691622408     0.442354876  0.442354876  0.288615013


 FORCES acting on ions
    electron-ion (+dipol)            ewald-force                    non-local-force                 convergence-correction
 -----------------------------------------------------------------------------------------------
   -.193E-06 0.193E-06 0.293E-13   0.198E-14 0.156E-15 0.342E-17   -.215E-16 -.111E-16 -.145E-17   -.673E-08 0.673E-08 0.136E-15
   0.193E-06 -.193E-06 -.246E-13   -.185E-14 0.943E-16 0.891E-15   0.231E-16 0.232E-17 -.358E-19   0.673E-08 -.673E-08 -.179E-16
 -----------------------------------------------------------------------------------------------
   -.184E-13 -.308E-14 0.471E-14   0.139E-15 0.250E-15 0.894E-15   0.165E-17 -.876E-17 -.148E-17   -.143E-15 -.176E-15 0.118E-15
 
 
 POSITION                                       TOTAL-FORCE (eV/Angst)
 -----------------------------------------------------------------------------------
      2.45000      0.00000      0.63700         0.000000     -0.000000      0.000000
      0.00000      0.00000      0.00000        -0.000000      0.000000     -0.000000
 -----------------------------------------------------------------------------------
    total drift:                               -0.000000     -0.000000      0.000000


--------------------------------------------------------------------------------------------------------



  FREE ENERGIE OF THE ION-ELECTRON SYSTEM (eV)
  ---------------------------------------------------
  free  energy   TOTEN  =       -10.25022561 eV

  energy  without entropy=      -10.23453341  energy(sigma->0) =      -10.24237951
 


--------------------------------------------------------------------------------------------------------


    POTLOK:  cpu time    0.0360: real time    0.0985


--------------------------------------------------------------------------------------------------------




--------------------------------------------------------------------------------------------------------


  
 reached required accuracy - stopping structural energy minimisation
 writing wavefunctions
     LOOP+:  cpu time   16.5320: real time   18.6829
    4ORBIT:  cpu time    0.0000: real time    0.0000

 total amount of memory used by VASP MPI-rank0    35618. kBytes
=======================================================================

   base      :      30000. kBytes
   nonl-proj :       3821. kBytes
   fftplans  :        247. kBytes
   grid      :        561. kBytes
   one-center:          6. kBytes
   wavefun   :        983. kBytes
 
  
  
 General timing and accounting informations for this job:
 ========================================================
  
                  Total CPU time used (sec):       20.832
                            User time (sec):       18.864
                          System time (sec):        1.968
                         Elapsed time (sec):       28.308
  
                   Maximum memory used (kb):        9760.
                   Average memory used (kb):           0.
  
                          Minor page faults:        38166
                          Major page faults:           23
                 Voluntary context switches:        44705
