unknown system                          
   1.00000000000000     
    -2.428636    2.428636    1.337617
     2.428636   -2.428636    1.337617
     2.428636    2.428636   -1.337617
   Si
     2
Direct
  0.750000  0.250000  0.500000
  0.500000  0.500000  0.000000
 
   36   36   36
  9.7235      9.6539      9.4512      9.1330      8.7243      8.2525      7.7435      7.2187      6.6941      6.1825    
  5.6949      5.2423      4.8350      4.4823      4.1906      3.9637      3.8025      3.7065      3.6747      3.7065    
  3.8025      3.9637      4.1906      4.4823      4.8350      5.2423      5.6949      6.1825      6.6941      7.2187    
  7.7435      8.2525      8.7242      9.1330      9.4512      9.6539      9.6539      9.8082      9.8211      9.6959    
  9.4469      9.0965      8.6698      8.1906      7.6789      7.1506      6.6197      6.0995      5.6040      5.1471    
  4.7412      4.3953      4.1147      3.9014      3.7550      3.6745      3.6590      3.7083      3.8232      4.0044    
  4.2513      4.5615      4.9307      5.3525      5.8198      6.3249      6.8591      7.4107      7.9629      8.4927    
  8.9714      9.3679      9.4512      9.8211      10.056      10.144      10.086      9.8935      9.5882      9.1935    
  8.7319      8.2221      7.6797      7.1192      6.5560      6.0072      5.4903      5.0214      4.6127      4.2716    
  4.0016      3.8029      3.6741      3.6139      3.6215      3.6971      3.8411      4.0532      4.3322      4.6755    
  5.0796      5.5407      6.0540      6.6128      7.2057      7.8148      8.4142      8.9714      9.1330      9.6959    
  10.144      10.451      10.600      10.594      10.443      10.169      9.7948      9.3416      8.8263      8.2631    
  7.6659      7.0518      6.4409      5.8550      5.3147      4.8361      4.4295      4.1002      3.8487      3.6737    
  3.5728      3.5446      3.5884      3.7041      3.8917      4.1509      4.4811      4.8816      5.3516      5.8888    
  6.4877      7.1366      7.8148      8.4927      8.7242      9.4469      10.086      10.600      10.961      11.154    
  11.180      11.055      10.800      10.439      9.9899      9.4665      8.8798      8.2423      7.5717      6.8920    
  6.2299      5.6116      5.0580      4.5831      4.1937      3.8912      3.6734      3.5371      3.4797      3.4995    
  3.5959      3.7691      4.0200      4.3502      4.7616      5.2561      5.8333      6.4877      7.2057      7.9629    
  8.2525      9.0965      9.8935      10.594      11.154      11.545      11.751      11.777      11.653      11.411    
  11.071      10.639      10.116      9.5078      8.8291      8.0990      7.3456      6.6023      5.9017      5.2706    
  4.7269      4.2792      3.9290      3.6734      3.5078      3.4281      3.4318      3.5178      3.6868      3.9411    
  4.2844      4.7214      5.2561      5.8888      6.6128      7.4107      7.7435      8.6698      9.5882      10.443    
  11.180      11.751      12.112      12.262      12.241      12.099      11.879      11.591      11.220      10.736    
  10.125      9.4067      8.6158      7.7861      6.9588      6.1745      5.4663      4.8560      4.3538      3.9611    
  3.6737      3.4854      3.3908      3.3863      3.4706      3.6455      3.9147      4.2844      4.7616      5.3516    
  6.0540      6.8591      7.2187      8.1906      9.1935      10.169      11.055      11.777      12.262      12.493    
  12.515      12.407      12.250      12.087      11.908      11.660      11.271      10.699      9.9559      9.1042    
  8.1975      7.2862      6.4197      5.6376      4.9655      4.4149      3.9864      3.6742      3.4705      3.3683    
  3.3634      3.4549      3.6455      3.9411      4.3502      4.8816      5.5407      6.3249      6.6941      7.6789    
  8.7319      9.7948      10.800      11.653      12.241      12.515      12.513      12.342      12.133      11.990    
  11.948      11.958      11.909      11.682      11.197      10.457      9.5475      8.5650      7.5723      6.6280    
  5.7781      5.0515      4.4603      4.0038      3.6746      3.4629      3.3608      3.3634      3.4706      3.6868    
  4.0200      4.4811      5.0796      5.8198      6.1825      7.1506      8.2221      9.3416      10.439      11.411    
  12.099      12.407      12.342      12.019      11.619      11.325      11.257      11.424      11.717      11.953    
  11.951      11.596      10.887      9.9307      8.8753      7.8063      6.7914      5.8825      5.1108      4.4882    
  4.0127      3.6747      3.4629      3.3683      3.3863      3.5178      3.7691      4.1509      4.6755      5.3525    
  5.6949      6.6197      7.6797      8.8263      9.9899      11.071      11.879      12.250      12.133      11.619    
  10.913      10.280      9.9553      10.055      10.537      11.212      11.811      12.086      11.894      11.233    
  10.241      9.1176      7.9797      6.9039      5.9467      5.1410      4.4976      4.0127      3.6746      3.4705    
  3.3908      3.4318      3.5959      3.8917      4.3322      4.9307      5.2423      6.0995      7.1192      8.2631    
  9.4665      10.639      11.591      12.087      11.990      11.325      10.281      9.1731      8.3514      8.0841    
  8.4641      9.3714      10.515      11.533      12.116      12.096      11.490      10.470      9.2836      8.0863    
  6.9612      5.9684      5.1410      4.4882      4.0038      3.6742      3.4854      3.4281      3.4995      3.7041    
  4.0532      4.5615      4.8350      5.6040      6.5560      7.6659      8.8798      10.116      11.220      11.908    
  11.948      11.257      9.9553      8.3514      6.8747      5.9493      5.8567      6.6353      8.0632      9.7342    
  11.194      12.081      12.221      11.658      10.609      9.3680      8.1222      6.9612      5.9467      5.1108    
  4.4603      3.9864      3.6737      3.5078      3.4797      3.5884      3.8411      4.2513      4.4823      5.1471    
  6.0072      7.0518      8.2423      9.5078      10.736      11.660      11.958      11.424      10.055      8.0842    
  5.9493      4.1884      3.2813      3.4919      4.7737      6.7832      8.9958      10.875      12.025      12.287    
  11.741      10.655      9.3680      8.0863      6.9039      5.8825      5.0515      4.4149      3.9611      3.6734    
  3.5371      3.5446      3.6971      4.0044      4.1906      4.7412      5.4903      6.4409      7.5718      8.8291    
  10.125      11.271      11.909      11.717      10.537      8.4641      5.8567      3.2813      1.3678     0.62138    
  1.2540      3.1081      5.7087      8.4217      10.649      11.987      12.307      11.741      10.609      9.2836    
  7.9797      6.7914      5.7781      4.9655      4.3538      3.9290      3.6734      3.5728      3.6215      3.8232    
  3.9637      4.3953      5.0214      5.8550      6.8920      8.0990      9.4067      10.699      11.682      11.953    
  11.212      9.3714      6.6353      3.4919     0.62138     -1.2829     -1.7277     -.58646      1.8547      4.9937    
  8.1082      10.568      11.987      12.287      11.658      10.470      9.1176      7.8063      6.6280      5.6376    
  4.8560      4.2792      3.8912      3.6737      3.6139      3.7083      3.8025      4.1147      4.6127      5.3147    
  6.2299      7.3456      8.6158      9.9559      11.197      11.951      11.811      10.515      8.0632      4.7737    
  1.2540     -1.7277     -3.4533     -3.4811     -1.7964      1.1821      4.7430      8.1082      10.649      12.025    
  12.221      11.490      10.241      8.8753      7.5723      6.4197      5.4663      4.7269      4.1937      3.8487    
  3.6741      3.6590      3.7065      3.9014      4.2717      4.8361      5.6116      6.6023      7.7861      9.1042    
  10.457      11.596      12.086      11.533      9.7342      6.7832      3.1081     -.58648     -3.4811     -4.8764    
 -4.4180     -2.2182      1.1821      4.9937      8.4217      10.875      12.081      12.096      11.233      9.9307    
  8.5650      7.2862      6.1745      5.2706      4.5831      4.1002      3.8029      3.6745      3.6747      3.7550    
  4.0017      4.4296      5.0580      5.9017      6.9588      8.1975      9.5475      10.887      11.894      12.116    
  11.194      8.9958      5.7087      1.8547     -1.7964     -4.4180     -5.3720     -4.4180     -1.7964      1.8547    
  5.7087      8.9958      11.194      12.116      11.894      10.887      9.5475      8.1975      6.9588      5.9017    
  5.0580      4.4295      4.0016      3.7550      3.7065      3.6745      3.8029      4.1002      4.5831      5.2706    
  6.1745      7.2862      8.5650      9.9307      11.233      12.096      12.081      10.875      8.4217      4.9937    
  1.1820     -2.2182     -4.4180     -4.8764     -3.4811     -.58646      3.1081      6.7832      9.7342      11.533    
  12.086      11.596      10.457      9.1042      7.7861      6.6023      5.6116      4.8361      4.2716      3.9014    
  3.8025      3.6590      3.6741      3.8488      4.1938      4.7269      5.4663      6.4197      7.5723      8.8753    
  10.241      11.490      12.221      12.025      10.649      8.1082      4.7430      1.1820     -1.7964     -3.4811    
 -3.4533     -1.7277      1.2540      4.7737      8.0632      10.515      11.811      11.951      11.197      9.9559    
  8.6158      7.3456      6.2299      5.3147      4.6127      4.1147      3.9637      3.7083      3.6139      3.6737    
  3.8912      4.2793      4.8560      5.6376      6.6279      7.8063      9.1175      10.470      11.658      12.287    
  11.987      10.568      8.1082      4.9937      1.8547     -.58648     -1.7277     -1.2829     0.62138      3.4919    
  6.6353      9.3714      11.212      11.953      11.682      10.699      9.4067      8.0990      6.8920      5.8550    
  5.0214      4.3953      4.1906      3.8232      3.6215      3.5729      3.6734      3.9291      4.3539      4.9655    
  5.7781      6.7914      7.9797      9.2836      10.609      11.741      12.307      11.987      10.649      8.4217    
  5.7087      3.1081      1.2540     0.62138      1.3678      3.2813      5.8567      8.4641      10.537      11.717    
  11.909      11.271      10.125      8.8291      7.5717      6.4409      5.4903      4.7412      4.4823      4.0044    
  3.6971      3.5447      3.5372      3.6734      3.9612      4.4149      5.0515      5.8825      6.9039      8.0862    
  9.3679      10.655      11.741      12.287      12.025      10.875      8.9958      6.7832      4.7737      3.4919    
  3.2813      4.1884      5.9493      8.0841      10.055      11.424      11.958      11.660      10.736      9.5078    
  8.2423      7.0518      6.0072      5.1471      4.8350      4.2513      3.8411      3.5884      3.4797      3.5078    
  3.6737      3.9864      4.4603      5.1108      5.9467      6.9612      8.1222      9.3679      10.609      11.658    
  12.221      12.081      11.194      9.7342      8.0632      6.6353      5.8567      5.9493      6.8747      8.3514    
  9.9553      11.257      11.948      11.908      11.220      10.116      8.8798      7.6659      6.5560      5.6040    
  5.2423      4.5615      4.0532      3.7041      3.4995      3.4282      3.4855      3.6742      4.0038      4.4882    
  5.1409      5.9684      6.9612      8.0862      9.2836      10.470      11.490      12.096      12.116      11.533    
  10.515      9.3714      8.4641      8.0842      8.3514      9.1731      10.280      11.325      11.990      12.087    
  11.591      10.639      9.4665      8.2631      7.1192      6.0995      5.6949      4.9307      4.3322      3.8917    
  3.5959      3.4318      3.3908      3.4705      3.6746      4.0127      4.4976      5.1409      5.9467      6.9039    
  7.9797      9.1175      10.241      11.233      11.894      12.086      11.811      11.212      10.537      10.055    
  9.9553      10.281      10.913      11.619      12.133      12.250      11.879      11.071      9.9899      8.8263    
  7.6797      6.6197      6.1825      5.3525      4.6755      4.1509      3.7691      3.5178      3.3863      3.3683    
  3.4630      3.6748      4.0127      4.4882      5.1108      5.8825      6.7914      7.8063      8.8753      9.9307    
  10.887      11.596      11.951      11.953      11.717      11.424      11.257      11.325      11.619      12.019    
  12.342      12.407      12.099      11.411      10.439      9.3416      8.2221      7.1506      6.6941      5.8198    
  5.0796      4.4810      4.0200      3.6868      3.4706      3.3634      3.3608      3.4630      3.6746      4.0038    
  4.4603      5.0515      5.7781      6.6279      7.5723      8.5650      9.5475      10.457      11.197      11.682    
  11.909      11.958      11.948      11.990      12.133      12.342      12.513      12.515      12.241      11.653    
  10.800      9.7948      8.7319      7.6789      7.2187      6.3249      5.5407      4.8816      4.3502      3.9410    
  3.6454      3.4549      3.3634      3.3683      3.4705      3.6742      3.9864      4.4149      4.9655      5.6376    
  6.4197      7.2862      8.1975      9.1042      9.9559      10.699      11.271      11.660      11.908      12.087    
  12.250      12.407      12.515      12.493      12.262      11.777      11.055      10.169      9.1935      8.1906    
  7.7435      6.8591      6.0540      5.3516      4.7616      4.2844      3.9146      3.6454      3.4706      3.3863    
  3.3908      3.4855      3.6737      3.9612      4.3539      4.8560      5.4663      6.1745      6.9588      7.7861    
  8.6158      9.4067      10.125      10.736      11.220      11.591      11.879      12.099      12.241      12.262    
  12.112      11.751      11.180      10.443      9.5882      8.6698      8.2525      7.4107      6.6128      5.8888    
  5.2561      4.7214      4.2844      3.9410      3.6868      3.5178      3.4318      3.4282      3.5078      3.6734    
  3.9291      4.2793      4.7269      5.2706      5.9017      6.6023      7.3456      8.0990      8.8291      9.5078    
  10.116      10.639      11.071      11.411      11.653      11.777      11.751      11.545      11.154      10.594    
  9.8935      9.0965      8.7243      7.9629      7.2057      6.4877      5.8333      5.2561      4.7616      4.3502    
  4.0200      3.7691      3.5959      3.4995      3.4797      3.5372      3.6734      3.8912      4.1938      4.5831    
  5.0580      5.6116      6.2299      6.8920      7.5718      8.2423      8.8798      9.4665      9.9899      10.439    
  10.800      11.055      11.180      11.154      10.961      10.600      10.086      9.4469      9.1330      8.4927    
  7.8148      7.1366      6.4877      5.8888      5.3516      4.8816      4.4810      4.1509      3.8917      3.7041    
  3.5884      3.5447      3.5729      3.6737      3.8488      4.1002      4.4296      4.8361      5.3147      5.8550    
  6.4409      7.0518      7.6659      8.2631      8.8263      9.3416      9.7948      10.169      10.443      10.594    
  10.600      10.451      10.144      9.6959      9.4512      8.9714      8.4142      7.8148      7.2057      6.6128    
  6.0540      5.5407      5.0796      4.6755      4.3322      4.0532      3.8411      3.6971      3.6215      3.6139    
  3.6741      3.8029      4.0017      4.2717      4.6127      5.0214      5.4903      6.0072      6.5560      7.1192    
  7.6797      8.2221      8.7319      9.1935      9.5882      9.8935      10.086      10.144      10.056      9.8211    
  9.6539      9.3679      8.9714      8.4927      7.9629      7.4107      6.8591      6.3249      5.8198      5.3525    
  4.9307      4.5615      4.2513      4.0044      3.8232      3.7083      3.6590      3.6745      3.7550      3.9014    
  4.1147      4.3953      4.7412      5.1471      5.6040      6.0995      6.6197      7.1506      7.6789      8.1906    
  8.6698      9.0965      9.4469      9.6959      9.8211      9.8082      9.6539      9.5440      9.3143      8.9823    
  8.5723      8.1110      7.6230      7.1282      6.6411      6.1724      5.7308      5.3248      4.9630      4.6530    
  4.4008      4.2100      4.0818      4.0162      4.0127      4.0710      4.1917      4.3755      4.6222      4.9295    
  5.2923      5.7022      6.1481      6.6178      7.0997      7.5824      8.0544      8.5015      8.9056      9.2447    
  9.4953      9.6363      9.5440      9.6539      9.6363      9.4953      9.2447      8.9056      8.5015      8.0544    
  7.5824      7.0997      6.6178      6.1481      5.7022      5.2924      4.9295      4.6222      4.3755      4.1917    
  4.0710      4.0127      4.0162      4.0818      4.2100      4.4008      4.6530      4.9630      5.3248      5.7308    
  6.1724      6.6411      7.1282      7.6230      8.1110      8.5723      8.9823      9.3143      9.2981      9.6197    
  9.8211      9.8913      9.8310      9.6515      9.3712      9.0114      8.5920      8.1297      7.6383      7.1304    
  6.6195      6.1211      5.6511      5.2241      4.8517      4.5412      4.2962      4.1173      4.0038      3.9549    
  3.9701      4.0498      4.1940      4.4018      4.6711      4.9981      5.3780      5.8058      6.2761      6.7822    
  7.3142      7.8566      8.3871      8.8778      8.9355      9.4465      9.8578      10.144      10.292      10.301    
  10.179      9.9441      9.6162      9.2131      8.7499      8.2394      7.6949      7.1321      6.5700      6.0289    
  5.5278      5.0819      4.7014      4.3914      4.1533      3.9864      3.8890      3.8603      3.8997      4.0070    
  4.1817      4.4227      4.7284      5.0969      5.5263      6.0138      6.5544      7.1382      7.7477      8.3575    
  8.4832      9.1504      9.7487      10.241      10.600      10.811      10.872      10.793      10.591      10.285    
  9.8896      9.4184      8.8819      8.2931      7.6698      7.0348      6.4136      5.8303      5.3047      4.8503    
  4.4740      4.1780      3.9611      3.8210      3.7555      3.7633      3.8438      3.9967      4.2221      4.5204    
  4.8924      5.3390      5.8598      6.4504      7.0996      7.7872      7.9713      8.7557      9.5081      10.183    
  10.741      11.154      11.407      11.500      11.446      11.266      10.978      10.590      10.108      9.5423    
  8.9046      8.2146      7.4998      6.7916      6.1205      5.5117      4.9822      4.5410      4.1906      3.9291    
  3.7529      3.6586      3.6439      3.7076      3.8498      4.0720      4.3766      4.7671      5.2468      5.8165    
  6.4714      7.1979      7.4277      8.2897      9.1583      9.9839      10.717      11.317      11.751      12.002    
  12.085      12.033      11.874      11.621      11.263      10.789      10.196      9.5076      8.7471      7.9479    
  7.1486      6.3873      5.6947      5.0920      4.5899      4.1906      3.8912      3.6866      3.5719      3.5437    
  3.6004      3.7429      3.9739      4.2984      4.7221      5.2501      5.8834      6.6153      6.8760      7.7783    
  8.7251      9.6653      10.543      11.305      11.890      12.262      12.439      12.469      12.409      12.292    
  12.112      11.833      11.409      10.817      10.080      9.2474      8.3619      7.4707      6.6198      5.8466    
  5.1756      4.6188      4.1780      3.8488      3.6240      3.4974      3.4644      3.5237      3.6770      3.9288    
  4.2863      4.7574      5.3478      6.0576      6.3337      7.2436      8.2331      9.2526      10.242      11.137    
  11.845      12.302      12.515      12.549      12.499      12.445      12.413      12.369      12.234      11.917    
  11.368      10.601      9.6968      8.7257      7.7449      6.8088      5.9611      5.2295      4.6267      4.1533    
  3.8029      3.5666      3.4364      3.4075      3.4786      3.6529      3.9370      4.3401      4.8717      5.5374    
  5.8141      6.7031      7.7036      8.7699      9.8409      10.844      11.660      12.181      12.385      12.342    
  12.185      12.054      12.046      12.170      12.344      12.427      12.279      11.816      11.048      10.079    
  9.0252      7.9603      6.9468      6.0338      5.2518      4.6133      4.1173      3.7550      3.5158      3.3905    
  3.3740      3.4659      3.6710      3.9983      4.4590      5.0631      5.3278      6.1712      7.1539      8.2372    
  9.3617      10.452      11.375      11.968      12.158      11.991      11.619      11.247      11.066      11.176    
  11.547      12.030      12.409      12.485      12.146      11.401      10.379      9.2494      8.1088      7.0284    
  6.0620      5.2417      4.5791      4.0710      3.7065      3.4731      3.3608      3.3647      3.4859      3.7314    
  4.1122      4.6413      4.8844      5.6608      6.5993      7.6710      8.8222      9.9787      11.013      11.713    
  11.933      11.659      11.025      10.281      9.7121      9.5468      9.8696      10.589      11.467      12.207    
  12.549      12.357      11.651      10.589      9.3907      8.1854      7.0510      6.0450      5.1998      4.5255    
  4.0162      3.6590      3.4396      3.3481      3.3802      3.5390      3.8337      4.2776      4.4924      5.1841    
  6.0546      7.0865      8.2366      9.4348      10.574      11.425      11.757      11.466      10.621      9.4643    
  8.3514      7.6438      7.5890      8.2319      9.3949      10.739      11.879      12.503      12.462      11.796    
  10.701      9.4450      8.1879      7.0143      5.9837      5.1279      4.4545      3.9549      3.6139      3.4166    
  3.3531      3.4207      3.6247      3.9769      4.1591      4.7530      5.5347      6.4996      7.6183      8.8312    
  10.049      11.075      11.613      11.448      10.540      9.0622      7.3784      5.9493      5.1973      5.3656    
  6.4314      8.1113      9.9569      11.500      12.390      12.480      11.841      10.715      9.4120      8.1173    
  6.9202      5.8809      5.0290      4.3688      3.8891      3.5729      3.4049      3.3761      3.4858      3.7421    
  3.8892      4.3771      5.0543      5.9278      6.9839      8.1785      9.4350      10.618      11.424      11.535    
  10.778      9.1972      7.0850      4.9275      3.2813      2.6056      3.1095      4.6773      6.9068      9.2428    
  11.149      12.255      12.432      11.795      10.633      9.2941      7.9770      6.7730      5.7408      4.9068    
  4.2715      3.8210      3.5372      3.4049      3.4167      3.5746      3.6851      4.0632      4.6263      5.3894    
  6.3533      7.4933      8.7499      10.027      11.098      11.590      11.197      9.8038      7.5569      4.8718    
  2.3501     0.62141     0.15076      1.0824      3.1888      5.9471      8.7093      10.894      12.133      12.334    
  11.664      10.459      9.0967      7.7729      6.5784      5.5689      4.7658      4.1660      3.7529      3.5078    
  3.4166      3.4741      3.5468      3.8148      4.2598      4.9005      5.7491      6.7989      8.0125      9.3150    
  10.575      11.462      11.579      10.651      8.6388      5.7984      2.6635     -.68830E-01 -1.7277     -1.8777    
 -.46576      2.1600      5.3671      8.4390      10.778      12.042      12.193      11.452      10.201      8.8274    
  7.5127      6.3440      5.3715      4.6112      4.0556      3.6866      3.4855      3.4397      3.4731      3.6327    
  3.9603      4.4740      5.1922      6.1229      7.2507      8.5252      9.8570      11.052      11.707      11.428    
  9.9888      7.4375      4.1378     0.72482     -2.0394     -3.4811     -3.2283     -1.3368      1.7284      5.2480    
  8.4696      10.811      11.982      12.006      11.161      9.8664      8.4959      7.2061      6.0784      5.1558    
  4.4480      3.9439      3.6240      3.4704      3.4629      3.5158      3.7294      4.1174      4.6994      5.4923    
  6.4987      7.6939      9.0151      10.356      11.447      11.851      11.199      9.3273      6.3722      2.7937    
 -.69786     -3.3142     -4.4180     -3.7286     -1.4173      1.9509      5.6024      8.7871      10.970      11.930    
  11.761      10.795      9.4669      8.1138      6.8641      5.7911      4.9292      4.2817      3.8341      3.5666    
  3.5158      3.4629      3.5666      3.8341      4.2817      4.9292      5.7911      6.8640      8.1137      9.4669    
  10.795      11.761      11.929      10.969      8.7870      5.6024      1.9509     -1.4173     -3.7286     -4.4180    
 -3.3142     -.69787      2.7937      6.3722      9.3273      11.199      11.851      11.447      10.356      9.0151    
  7.6939      6.4988      5.4923      4.6994      4.1174      3.7294      3.6327      3.4731      3.4704      3.6240    
  3.9439      4.4480      5.1557      6.0783      7.2060      8.4959      9.8664      11.161      12.005      11.982    
  10.811      8.4696      5.2480      1.7284     -1.3369     -3.2283     -3.4811     -2.0395     0.72480      4.1378    
  7.4375      9.9888      11.428      11.707      11.052      9.8571      8.5252      7.2507      6.1229      5.1922    
  4.4740      3.9602      3.8148      3.5468      3.4396      3.4854      3.6867      4.0557      4.6112      5.3715    
  6.3440      7.5126      8.8274      10.201      11.452      12.193      12.042      10.778      8.4389      5.3671    
  2.1600     -.46579     -1.8778     -1.7277     -.68880E-01  2.6635      5.7984      8.6387      10.651      11.579    
  11.462      10.575      9.3150      8.0125      6.7989      5.7491      4.9005      4.2598      4.0631      3.6851    
  3.4741      3.4166      3.5078      3.7529      4.1660      4.7658      5.5689      6.5784      7.7728      9.0967    
  10.459      11.664      12.334      12.133      10.894      8.7092      5.9470      3.1887      1.0824     0.15070    
 0.62134      2.3500      4.8718      7.5569      9.8038      11.197      11.590      11.098      10.027      8.7499    
  7.4933      6.3533      5.3893      4.6263      4.3771      3.8892      3.5746      3.4167      3.4049      3.5372    
  3.8210      4.2715      4.9068      5.7408      6.7729      7.9770      9.2940      10.633      11.795      12.432    
  12.255      11.149      9.2428      6.9068      4.6773      3.1095      2.6056      3.2812      4.9275      7.0850    
  9.1971      10.778      11.535      11.424      10.618      9.4350      8.1785      6.9838      5.9278      5.0543    
  4.7530      4.1590      3.7421      3.4858      3.3761      3.4049      3.5729      3.8891      4.3688      5.0290    
  5.8809      6.9202      8.1173      9.4119      10.715      11.841      12.480      12.390      11.500      9.9569    
  8.1113      6.4314      5.3655      5.1972      5.9492      7.3783      9.0622      10.540      11.448      11.613    
  11.075      10.049      8.8312      7.6183      6.4996      5.5346      5.1841      4.4924      3.9769      3.6247    
  3.4207      3.3531      3.4167      3.6139      3.9549      4.4545      5.1279      5.9837      7.0142      8.1879    
  9.4450      10.701      11.796      12.462      12.503      11.879      10.739      9.3949      8.2319      7.5890    
  7.6438      8.3514      9.4643      10.621      11.466      11.757      11.425      10.574      9.4348      8.2366    
  7.0865      6.0546      5.6607      4.8843      4.2776      3.8337      3.5390      3.3802      3.3481      3.4397    
  3.6590      4.0163      4.5255      5.1998      6.0450      7.0510      8.1854      9.3907      10.589      11.651    
  12.357      12.549      12.207      11.467      10.589      9.8695      9.5468      9.7121      10.280      11.025    
  11.659      11.933      11.713      11.013      9.9788      8.8222      7.6710      6.5993      6.1712      5.3278    
  4.6412      4.1122      3.7314      3.4859      3.3647      3.3608      3.4731      3.7066      4.0710      4.5791    
  5.2417      6.0620      7.0284      8.1089      9.2495      10.379      11.401      12.146      12.485      12.409    
  12.030      11.547      11.176      11.066      11.247      11.619      11.991      12.158      11.968      11.375    
  10.452      9.3617      8.2372      7.1539      6.7031      5.8141      5.0630      4.4589      3.9983      3.6710    
  3.4659      3.3740      3.3906      3.5159      3.7551      4.1173      4.6133      5.2518      6.0338      6.9468    
  7.9603      9.0253      10.079      11.048      11.816      12.279      12.427      12.344      12.170      12.046    
  12.054      12.185      12.342      12.385      12.181      11.660      10.844      9.8409      8.7699      7.7036    
  7.2436      6.3337      5.5374      4.8717      4.3401      3.9370      3.6529      3.4786      3.4075      3.4365    
  3.5666      3.8029      4.1533      4.6267      5.2295      5.9611      6.8089      7.7449      8.7257      9.6969    
  10.601      11.368      11.917      12.234      12.369      12.413      12.445      12.499      12.549      12.515    
  12.302      11.845      11.137      10.242      9.2526      8.2331      7.7783      6.8760      6.0576      5.3478    
  4.7573      4.2863      3.9288      3.6770      3.5237      3.4644      3.4974      3.6240      3.8488      4.1780    
  4.6188      5.1756      5.8466      6.6198      7.4707      8.3619      9.2475      10.080      10.817      11.409    
  11.833      12.112      12.292      12.409      12.469      12.439      12.262      11.890      11.305      10.543    
  9.6653      8.7251      8.2897      7.4277      6.6153      5.8834      5.2501      4.7221      4.2984      3.9739    
  3.7429      3.6004      3.5436      3.5719      3.6866      3.8912      4.1906      4.5899      5.0921      5.6947    
  6.3873      7.1487      7.9479      8.7471      9.5076      10.196      10.789      11.263      11.621      11.874    
  12.033      12.085      12.002      11.751      11.317      10.717      9.9839      9.1583      8.7557      7.9713    