unknown system                          
   1.00000000000000     
    -2.428636    2.428636    1.337617
     2.428636   -2.428636    1.337617
     2.428636    2.428636   -1.337617
   Si
     2
Direct
  0.750000  0.250000  0.500000
  0.500000  0.500000  0.000000
 
   36   36   36
 0.97235083976E+01 0.96538698743E+01 0.94512319092E+01 0.91330423510E+01 0.87242511371E+01
 0.82524771644E+01 0.77435328026E+01 0.72186604490E+01 0.66940916332E+01 0.61824793598E+01
 0.56949291063E+01 0.52422806742E+01 0.48350306624E+01 0.44822799574E+01 0.41906231816E+01
 0.39636919140E+01 0.38025252964E+01 0.37065341040E+01 0.36746930680E+01 0.37065333799E+01
 0.38025254691E+01 0.39636949811E+01 0.41906288435E+01 0.44822846982E+01 0.48350320006E+01
 0.52422815616E+01 0.56949342176E+01 0.61824879704E+01 0.66940983018E+01 0.72186619958E+01
 0.77435308170E+01 0.82524744475E+01 0.87242494588E+01 0.91330434026E+01 0.94512361854E+01
 0.96538742031E+01 0.96538742031E+01 0.98081510649E+01 0.98211181580E+01 0.96958790045E+01
 0.94469387496E+01 0.90965265711E+01 0.86698105504E+01 0.81905934713E+01 0.76788517245E+01
 0.71506324474E+01 0.66196947015E+01 0.60994725089E+01 0.56039773982E+01 0.51471459704E+01
 0.47412263096E+01 0.43952970575E+01 0.41146801472E+01 0.39013531650E+01 0.37550352772E+01
 0.36745375052E+01 0.36589560732E+01 0.37082778266E+01 0.38232065813E+01 0.40043597854E+01
 0.42512537963E+01 0.45615220543E+01 0.49306720707E+01 0.53524852128E+01 0.58197871932E+01
 0.63249067559E+01 0.68590801739E+01 0.74106574233E+01 0.79628930875E+01 0.84926797905E+01
 0.89713669534E+01 0.93679455339E+01 0.94512361854E+01 0.98211212000E+01 0.10056377201E+02
 0.10144355139E+02 0.10085839876E+02 0.98935478190E+01 0.95882007394E+01 0.91935172756E+01
 0.87318735919E+01 0.82220809285E+01 0.76797222813E+01 0.71192233070E+01 0.65559974823E+01
 0.60071532461E+01 0.54903263475E+01 0.50214355811E+01 0.46126775617E+01 0.42716399632E+01
 0.40016422840E+01 0.38029152497E+01 0.36741398243E+01 0.36138880990E+01 0.36214885842E+01
 0.36970865144E+01 0.38410554387E+01 0.40531989577E+01 0.43321900884E+01 0.46754818505E+01
 0.50796426994E+01 0.55407263535E+01 0.60540374133E+01 0.66127779054E+01 0.72057110886E+01
 0.78147968412E+01 0.84141544965E+01 0.89713669534E+01 0.91330434026E+01 0.96958811699E+01
 0.10144356346E+02 0.10450709487E+02 0.10600438467E+02 0.10593597033E+02 0.10442842871E+02
 0.10168865268E+02 0.97947886665E+01 0.93416170738E+01 0.88263450002E+01 0.82630708811E+01
 0.76659311253E+01 0.70517800023E+01 0.64408552249E+01 0.58550288457E+01 0.53147112900E+01
 0.48360516710E+01 0.44295381339E+01 0.41001661816E+01 0.38487387823E+01 0.36736880203E+01
 0.35728477080E+01 0.35446403679E+01 0.35884143225E+01 0.37041074088E+01 0.38916985240E+01
 0.41508769523E+01 0.44810654851E+01 0.48815971505E+01 0.53515648632E+01 0.58887996604E+01
 0.64877304541E+01 0.71365505426E+01 0.78147968412E+01 0.84926797905E+01 0.87242494588E+01
 0.94469384437E+01 0.10085840119E+02 0.10600438133E+02 0.10961224748E+02 0.11153904374E+02
 0.11180197631E+02 0.11054728396E+02 0.10799944289E+02 0.10438905374E+02 0.99898678112E+01
 0.94665304009E+01 0.88798025316E+01 0.82422615120E+01 0.75717428100E+01 0.68919575201E+01
 0.62299073050E+01 0.56115703660E+01 0.50579728538E+01 0.45830736060E+01 0.41937247333E+01
 0.38911906883E+01 0.36733967818E+01 0.35371495001E+01 0.34797121731E+01 0.34994647478E+01
 0.35958515223E+01 0.37690898254E+01 0.40200285331E+01 0.43501837571E+01 0.47616123047E+01
 0.52561018631E+01 0.58332852552E+01 0.64877304541E+01 0.72057110886E+01 0.79628930875E+01
 0.82524744475E+01 0.90965247533E+01 0.98935473229E+01 0.10593596361E+02 0.11153903171E+02
 0.11545155846E+02 0.11750772592E+02 0.11777457615E+02 0.11653401084E+02 0.11410677330E+02
 0.11070601617E+02 0.10639406888E+02 0.10116187517E+02 0.95077924429E+01 0.88290728412E+01
 0.80990191524E+01 0.73456338089E+01 0.66022749626E+01 0.59016879482E+01 0.52706316848E+01
 0.47269210907E+01 0.42792410573E+01 0.39290443874E+01 0.36734037234E+01 0.35077975348E+01
 0.34281348462E+01 0.34317720677E+01 0.35177567440E+01 0.36867640278E+01 0.39410583583E+01
 0.42843985487E+01 0.47214360430E+01 0.52561018631E+01 0.58887996604E+01 0.66127779054E+01
 0.74106574233E+01 0.77435308170E+01 0.86698081724E+01 0.95882001871E+01 0.10442843388E+02
 0.11180196980E+02 0.11750771144E+02 0.12111603197E+02 0.12262340432E+02 0.12240741648E+02
 0.12099265604E+02 0.11878825056E+02 0.11591440485E+02 0.11220072072E+02 0.10735926861E+02
 0.10124712599E+02 0.94066717998E+01 0.86157772285E+01 0.77860989778E+01 0.69587837958E+01
 0.61744697171E+01 0.54662688933E+01 0.48559657938E+01 0.43538372748E+01 0.39611342297E+01
 0.36737058941E+01 0.34854486894E+01 0.33908269319E+01 0.33862605321E+01 0.34706455778E+01
 0.36454515614E+01 0.39146662500E+01 0.42843985487E+01 0.47616123047E+01 0.53515648632E+01
 0.60540374133E+01 0.68590801739E+01 0.72186619958E+01 0.81905920178E+01 0.91935161908E+01
 0.10168866782E+02 0.11054730433E+02 0.11777457563E+02 0.12262339371E+02 0.12493274954E+02
 0.12514660391E+02 0.12406971672E+02 0.12249786428E+02 0.12086863352E+02 0.11908466806E+02
 0.11659598436E+02 0.11271062662E+02 0.10699217347E+02 0.99558881562E+01 0.91042035371E+01
 0.81975257684E+01 0.72862213103E+01 0.64196672991E+01 0.56375826488E+01 0.49655210797E+01
 0.44149180828E+01 0.39863705680E+01 0.36741635603E+01 0.34704514339E+01 0.33682950780E+01
 0.33634095343E+01 0.34549051892E+01 0.36454515614E+01 0.39410583583E+01 0.43501837571E+01
 0.48815971505E+01 0.55407263535E+01 0.63249067559E+01 0.66940983018E+01 0.76788540139E+01
 0.87318727919E+01 0.97947892855E+01 0.10799947985E+02 0.11653404642E+02 0.12240742736E+02
 0.12514660577E+02 0.12513297690E+02 0.12342471295E+02 0.12133431302E+02 0.11990383905E+02
 0.11948008857E+02 0.11957610323E+02 0.11909365652E+02 0.11681749683E+02 0.11196658322E+02
 0.10456652453E+02 0.95475003588E+01 0.85649889502E+01 0.75723018911E+01 0.66279570060E+01
 0.57780970427E+01 0.50515323551E+01 0.44602768408E+01 0.40038028993E+01 0.36745651317E+01
 0.34629384023E+01 0.33607648292E+01 0.33634095343E+01 0.34706455778E+01 0.36867640278E+01
 0.40200285331E+01 0.44810654851E+01 0.50796426994E+01 0.58197871932E+01 0.61824879704E+01
 0.71506391499E+01 0.82220832459E+01 0.93416170388E+01 0.10438908141E+02 0.11410683235E+02
 0.12099270719E+02 0.12406974785E+02 0.12342473833E+02 0.12019341779E+02 0.11618523769E+02
 0.11324682141E+02 0.11257403701E+02 0.11424202150E+02 0.11716666177E+02 0.11953252715E+02
 0.11951042473E+02 0.11596419899E+02 0.10887029123E+02 0.99307457749E+01 0.88752915261E+01
 0.78063414104E+01 0.67914224891E+01 0.58824694226E+01 0.51107650847E+01 0.44882132914E+01
 0.40127141894E+01 0.36747236082E+01 0.34629384023E+01 0.33682950780E+01 0.33862605321E+01
 0.35177567440E+01 0.37690898254E+01 0.41508769523E+01 0.46754818505E+01 0.53524852128E+01
 0.56949342176E+01 0.66197014846E+01 0.76797283916E+01 0.88263471464E+01 0.99898694006E+01
 0.11070607404E+02 0.11878833297E+02 0.12249793323E+02 0.12133437580E+02 0.11618529711E+02
 0.10912711779E+02 0.10280491870E+02 0.99552752189E+01 0.10055237855E+02 0.10537383765E+02
 0.11211631729E+02 0.11810669035E+02 0.12086280807E+02 0.11893539737E+02 0.11233205310E+02
 0.10241473760E+02 0.91175640937E+01 0.79797453740E+01 0.69039015039E+01 0.59467261042E+01
 0.51409618577E+01 0.44976489613E+01 0.40127141894E+01 0.36745651317E+01 0.34704514339E+01
 0.33908269319E+01 0.34317720677E+01 0.35958515223E+01 0.38916985240E+01 0.43321900884E+01
 0.49306720707E+01 0.52422815616E+01 0.60994744901E+01 0.71192294422E+01 0.82630765635E+01
 0.94665330919E+01 0.10639411657E+02 0.11591450236E+02 0.12086873832E+02 0.11990392733E+02
 0.11324692370E+02 0.10280501603E+02 0.91731180288E+01 0.83514262935E+01 0.80841351860E+01
 0.84640553672E+01 0.93714238872E+01 0.10514786838E+02 0.11532992110E+02 0.12115640856E+02
 0.12096321537E+02 0.11490032352E+02 0.10469607062E+02 0.92836015979E+01 0.80862863759E+01
 0.69612000730E+01 0.59684203893E+01 0.51409618577E+01 0.44882132914E+01 0.40038028993E+01
 0.36741635603E+01 0.34854486894E+01 0.34281348462E+01 0.34994647478E+01 0.37041074088E+01
 0.40531989577E+01 0.45615220543E+01 0.48350320006E+01 0.56039756938E+01 0.65559998986E+01
 0.76659382382E+01 0.88798081168E+01 0.10116191805E+02 0.11220081404E+02 0.11908480709E+02
 0.11948020877E+02 0.11257414165E+02 0.99552890567E+01 0.83514388585E+01 0.68746615661E+01
 0.59492629845E+01 0.58566827298E+01 0.66352835140E+01 0.80632012213E+01 0.97341665053E+01
 0.11193813789E+02 0.12080537717E+02 0.12221301838E+02 0.11658275621E+02 0.10608550635E+02
 0.93679676371E+01 0.81222162253E+01 0.69612000730E+01 0.59467261042E+01 0.51107650847E+01
 0.44602768408E+01 0.39863705680E+01 0.36737058941E+01 0.35077975348E+01 0.34797121731E+01
 0.35884143225E+01 0.38410554387E+01 0.42512537963E+01 0.44822846982E+01 0.51471467839E+01
 0.60071531330E+01 0.70517859524E+01 0.82422700912E+01 0.95077977517E+01 0.10735933415E+02
 0.11659612617E+02 0.11957627189E+02 0.11424214291E+02 0.10055248878E+02 0.80841505791E+01
 0.59492757338E+01 0.41883723838E+01 0.32812699070E+01 0.34918600642E+01 0.47737237898E+01
 0.67832295246E+01 0.89957888880E+01 0.10874675397E+02 0.12025467188E+02 0.12286845038E+02
 0.11741138319E+02 0.10655161451E+02 0.93679676371E+01 0.80862863759E+01 0.69039015039E+01
 0.58824694226E+01 0.50515323551E+01 0.44149180828E+01 0.39611342297E+01 0.36734037234E+01
 0.35371495001E+01 0.35446403679E+01 0.36970865144E+01 0.40043597854E+01 0.41906288435E+01
 0.47412333414E+01 0.54903286319E+01 0.64408595372E+01 0.75717530878E+01 0.88290816036E+01
 0.10124716736E+02 0.11271071276E+02 0.11909383250E+02 0.11716683440E+02 0.10537394086E+02
 0.84640649754E+01 0.58566958148E+01 0.32812788504E+01 0.13677696519E+01 0.62137517921E+00
 0.12540154898E+01 0.31080625872E+01 0.57086762658E+01 0.84217219702E+01 0.10649046549E+02
 0.11987462983E+02 0.12306957464E+02 0.11741138319E+02 0.10608550635E+02 0.92836015979E+01
 0.79797453740E+01 0.67914224891E+01 0.57780970427E+01 0.49655210797E+01 0.43538372748E+01
 0.39290443874E+01 0.36733967818E+01 0.35728477080E+01 0.36214885842E+01 0.38232065813E+01
 0.39636949811E+01 0.43953079338E+01 0.50214437549E+01 0.58550334620E+01 0.68919670993E+01
 0.80990320919E+01 0.94066781814E+01 0.10699218992E+02 0.11681759006E+02 0.11953270540E+02
 0.11211645951E+02 0.93714302284E+01 0.66352889041E+01 0.34918657980E+01 0.62137607075E+00
 -.12828914722E+01 -.17277033572E+01 -.58645563864E+00 0.18547219985E+01 0.49937178132E+01
 0.81082125149E+01 0.10567785507E+02 0.11987462983E+02 0.12286845038E+02 0.11658275621E+02
 0.10469607062E+02 0.91175640937E+01 0.78063414104E+01 0.66279570060E+01 0.56375826488E+01
 0.48559657938E+01 0.42792410573E+01 0.38911906883E+01 0.36736880203E+01 0.36138880990E+01
 0.37082778266E+01 0.38025254691E+01 0.41146895427E+01 0.46126907774E+01 0.53147193138E+01
 0.62299146751E+01 0.73456472934E+01 0.86157891494E+01 0.99558892042E+01 0.11196656339E+02
 0.11951050270E+02 0.11810682810E+02 0.10514794318E+02 0.80632013516E+01 0.47737216910E+01
 0.12540092147E+01 -.17277133809E+01 -.34533289243E+01 -.34811079234E+01 -.17963618145E+01
 0.11820702567E+01 0.47430495128E+01 0.81082125149E+01 0.10649046549E+02 0.12025467188E+02
 0.12221301838E+02 0.11490032352E+02 0.10241473760E+02 0.88752915261E+01 0.75723018911E+01
 0.64196672991E+01 0.54662688933E+01 0.47269210907E+01 0.41937247333E+01 0.38487387823E+01
 0.36741398243E+01 0.36589560732E+01 0.37065333799E+01 0.39013572090E+01 0.42716537586E+01
 0.48360657036E+01 0.56115784883E+01 0.66022845834E+01 0.77861125938E+01 0.91042095783E+01
 0.10456646150E+02 0.11596414005E+02 0.12086284659E+02 0.11532997382E+02 0.97341638414E+01
 0.67832212812E+01 0.31080503630E+01 -.58647596285E+00 -.34811286242E+01 -.48764333323E+01
 -.44180003125E+01 -.22181945158E+01 0.11820702567E+01 0.49937178132E+01 0.84217219702E+01
 0.10874675397E+02 0.12080537717E+02 0.12096321537E+02 0.11233205310E+02 0.99307457749E+01
 0.85649889502E+01 0.72862213103E+01 0.61744697171E+01 0.52706316848E+01 0.45830736060E+01
 0.41001661816E+01 0.38029152497E+01 0.36745375052E+01 0.36746930680E+01 0.37550339758E+01
 0.40016509347E+01 0.44295563849E+01 0.50579876902E+01 0.59016959985E+01 0.69587928120E+01
 0.81975337731E+01 0.95474964994E+01 0.10887015696E+02 0.11893530831E+02 0.12115638604E+02
 0.11193806920E+02 0.89957737966E+01 0.57086585246E+01 0.18546994615E+01 -.17963936964E+01
 -.44180276683E+01 -.53719911990E+01 -.44180003125E+01 -.17963618145E+01 0.18547219985E+01
 0.57086762658E+01 0.89957888880E+01 0.11193813789E+02 0.12115640856E+02 0.11893539737E+02
 0.10887029123E+02 0.95475003588E+01 0.81975257684E+01 0.69587837958E+01 0.59016879482E+01
 0.50579728538E+01 0.44295381339E+01 0.40016422840E+01 0.37550352772E+01 0.37065341040E+01
 0.36745351111E+01 0.38029172114E+01 0.41001826226E+01 0.45830963805E+01 0.52706458617E+01
 0.61744750815E+01 0.72862244893E+01 0.85649858924E+01 0.99307307729E+01 0.11233187336E+02
 0.12096310985E+02 0.12080527839E+02 0.10874654934E+02 0.84216948543E+01 0.49936921103E+01
 0.11820410552E+01 -.22182309032E+01 -.44180276683E+01 -.48764333323E+01 -.34811079234E+01
 -.58645563864E+00 0.31080625872E+01 0.67832295246E+01 0.97341665053E+01 0.11532992110E+02
 0.12086280807E+02 0.11596419899E+02 0.10456652453E+02 0.91042035371E+01 0.77860989778E+01
 0.66022749626E+01 0.56115703660E+01 0.48360516710E+01 0.42716399632E+01 0.39013531650E+01
 0.38025252964E+01 0.36589576819E+01 0.36741409181E+01 0.38487503383E+01 0.41937501426E+01
 0.47269452450E+01 0.54662786163E+01 0.64196658135E+01 0.75722945036E+01 0.88752748146E+01
 0.10241449440E+02 0.11490013005E+02 0.12221290504E+02 0.12025449696E+02 0.10649014960E+02
 0.81081777719E+01 0.47430206561E+01 0.11820410552E+01 -.17963936964E+01 -.34811286242E+01
 -.34533289243E+01 -.17277033572E+01 0.12540154898E+01 0.47737237898E+01 0.80632012213E+01
 0.10514786838E+02 0.11810669035E+02 0.11951042473E+02 0.11196658322E+02 0.99558881562E+01
 0.86157772285E+01 0.73456338089E+01 0.62299073050E+01 0.53147112900E+01 0.46126775617E+01
 0.41146801472E+01 0.39636919140E+01 0.37082838989E+01 0.36138958310E+01 0.36736988681E+01
 0.38912133751E+01 0.42792708660E+01 0.48559849972E+01 0.56375834930E+01 0.66279458759E+01
 0.78063217512E+01 0.91175348104E+01 0.10469576630E+02 0.11658256824E+02 0.12286833157E+02
 0.11987440556E+02 0.10567749563E+02 0.81081777719E+01 0.49936921103E+01 0.18546994615E+01
 -.58647596285E+00 -.17277133809E+01 -.12828914722E+01 0.62137517921E+00 0.34918600642E+01
 0.66352835140E+01 0.93714238872E+01 0.11211631729E+02 0.11953252715E+02 0.11681749683E+02
 0.10699217347E+02 0.94066717998E+01 0.80990191524E+01 0.68919575201E+01 0.58550288457E+01
 0.50214355811E+01 0.43952970575E+01 0.41906231816E+01 0.38232119856E+01 0.36215029048E+01
 0.35728639565E+01 0.36734178008E+01 0.39290736346E+01 0.43538636864E+01 0.49655295940E+01
 0.57780871352E+01 0.67914017807E+01 0.79797150597E+01 0.92835631885E+01 0.10608517045E+02
 0.11741120270E+02 0.12306945331E+02 0.11987440556E+02 0.10649014960E+02 0.84216948543E+01
 0.57086585246E+01 0.31080503630E+01 0.12540092147E+01 0.62137607075E+00 0.13677696519E+01
 0.32812699070E+01 0.58566827298E+01 0.84640553672E+01 0.10537383765E+02 0.11716666177E+02
 0.11909365652E+02 0.11271062662E+02 0.10124712599E+02 0.88290728412E+01 0.75717428100E+01
 0.64408552249E+01 0.54903263475E+01 0.47412263096E+01 0.44822799574E+01 0.40043603043E+01
 0.36970995055E+01 0.35446609279E+01 0.35371722110E+01 0.36734309470E+01 0.39611633601E+01
 0.44149353990E+01 0.50515287143E+01 0.58824503326E+01 0.69038736652E+01 0.80862490619E+01
 0.93679245131E+01 0.10655126919E+02 0.11741120270E+02 0.12286833157E+02 0.12025449696E+02
 0.10874654934E+02 0.89957737966E+01 0.67832212812E+01 0.47737216910E+01 0.34918657980E+01
 0.32812788504E+01 0.41883723838E+01 0.59492629845E+01 0.80841351860E+01 0.10055237855E+02
 0.11424202150E+02 0.11957610323E+02 0.11659598436E+02 0.10735926861E+02 0.95077924429E+01
 0.82422615120E+01 0.70517800023E+01 0.60071532461E+01 0.51471459704E+01 0.48350306624E+01
 0.42512504060E+01 0.38410600492E+01 0.35884306682E+01 0.34797345906E+01 0.35078230895E+01
 0.36737349889E+01 0.39863953963E+01 0.44602840396E+01 0.51107519050E+01 0.59467013437E+01
 0.69611685842E+01 0.81221764875E+01 0.93679245131E+01 0.10608517045E+02 0.11658256824E+02
 0.12221290504E+02 0.12080527839E+02 0.11193806920E+02 0.97341638414E+01 0.80632013516E+01
 0.66352889041E+01 0.58566958148E+01 0.59492757338E+01 0.68746615661E+01 0.83514262935E+01
 0.99552752189E+01 0.11257403701E+02 0.11948008857E+02 0.11908466806E+02 0.11220072072E+02
 0.10116187517E+02 0.88798025316E+01 0.76659311253E+01 0.65559974823E+01 0.56039773982E+01
 0.52422806742E+01 0.45615171427E+01 0.40531945434E+01 0.37041124487E+01 0.34994800470E+01
 0.34281562047E+01 0.34854750715E+01 0.36741924183E+01 0.40038228607E+01 0.44882131770E+01
 0.51409436851E+01 0.59683937778E+01 0.69611685842E+01 0.80862490619E+01 0.92835631885E+01
 0.10469576630E+02 0.11490013005E+02 0.12096310985E+02 0.12115638604E+02 0.11532997382E+02
 0.10514794318E+02 0.93714302284E+01 0.84640649754E+01 0.80841505791E+01 0.83514388585E+01
 0.91731180288E+01 0.10280491870E+02 0.11324682141E+02 0.11990383905E+02 0.12086863352E+02
 0.11591440485E+02 0.10639406888E+02 0.94665304009E+01 0.82630708811E+01 0.71192233070E+01
 0.60994725089E+01 0.56949291063E+01 0.49306651343E+01 0.43321797278E+01 0.38916916615E+01
 0.35958547850E+01 0.34317848045E+01 0.33908469465E+01 0.34704782845E+01 0.36745934391E+01
 0.40127312009E+01 0.44976462429E+01 0.51409436851E+01 0.59467013437E+01 0.69038736652E+01
 0.79797150597E+01 0.91175348104E+01 0.10241449440E+02 0.11233187336E+02 0.11893530831E+02
 0.12086284659E+02 0.11810682810E+02 0.11211645951E+02 0.10537394086E+02 0.10055248878E+02
 0.99552890567E+01 0.10280501603E+02 0.10912711779E+02 0.11618523769E+02 0.12133431302E+02
 0.12249786428E+02 0.11878825056E+02 0.11070601617E+02 0.99898678112E+01 0.88263450002E+01
 0.76797222813E+01 0.66196947015E+01 0.61824793598E+01 0.53524751542E+01 0.46754680887E+01
 0.41508617606E+01 0.37690808910E+01 0.35177583218E+01 0.33862715283E+01 0.33683145827E+01
 0.34629656725E+01 0.36747517004E+01 0.40127312009E+01 0.44882131770E+01 0.51107519050E+01
 0.58824503326E+01 0.67914017807E+01 0.78063217512E+01 0.88752748146E+01 0.99307307729E+01
 0.10887015696E+02 0.11596414005E+02 0.11951050270E+02 0.11953270540E+02 0.11716683440E+02
 0.11424214291E+02 0.11257414165E+02 0.11324692370E+02 0.11618529711E+02 0.12019341779E+02
 0.12342471295E+02 0.12406971672E+02 0.12099265604E+02 0.11410677330E+02 0.10438905374E+02
 0.93416170738E+01 0.82220809285E+01 0.71506324474E+01 0.66940916332E+01 0.58197770782E+01
 0.50796283658E+01 0.44810467665E+01 0.40200106976E+01 0.36867542720E+01 0.34706464737E+01
 0.33634199235E+01 0.33607842916E+01 0.34629656725E+01 0.36745934391E+01 0.40038228607E+01
 0.44602840396E+01 0.50515287143E+01 0.57780871352E+01 0.66279458759E+01 0.75722945036E+01
 0.85649858924E+01 0.95474964994E+01 0.10456646150E+02 0.11196656339E+02 0.11681759006E+02
 0.11909383250E+02 0.11957627189E+02 0.11948020877E+02 0.11990392733E+02 0.12133437580E+02
 0.12342473833E+02 0.12513297690E+02 0.12514660391E+02 0.12240741648E+02 0.11653401084E+02
 0.10799944289E+02 0.97947886665E+01 0.87318735919E+01 0.76788517245E+01 0.72186604490E+01
 0.63249010923E+01 0.55407158626E+01 0.48815803735E+01 0.43501625976E+01 0.39410397181E+01
 0.36454417745E+01 0.34549059850E+01 0.33634199235E+01 0.33683145827E+01 0.34704782845E+01
 0.36741924183E+01 0.39863953963E+01 0.44149353990E+01 0.49655295940E+01 0.56375834930E+01
 0.64196658135E+01 0.72862244893E+01 0.81975337731E+01 0.91042095783E+01 0.99558892042E+01
 0.10699218992E+02 0.11271071276E+02 0.11659612617E+02 0.11908480709E+02 0.12086873832E+02
 0.12249793323E+02 0.12406974785E+02 0.12514660577E+02 0.12493274954E+02 0.12262340432E+02
 0.11777457615E+02 0.11054728396E+02 0.10168865268E+02 0.91935172756E+01 0.81905934713E+01
 0.77435328026E+01 0.68590796316E+01 0.60540331432E+01 0.53515547437E+01 0.47615945953E+01
 0.42843766057E+01 0.39146475186E+01 0.36454417745E+01 0.34706464737E+01 0.33862715283E+01
 0.33908469465E+01 0.34854750715E+01 0.36737349889E+01 0.39611633601E+01 0.43538636864E+01
 0.48559849972E+01 0.54662786163E+01 0.61744750815E+01 0.69587928120E+01 0.77861125938E+01
 0.86157891494E+01 0.94066781814E+01 0.10124716736E+02 0.10735933415E+02 0.11220081404E+02
 0.11591450236E+02 0.11878833297E+02 0.12099270719E+02 0.12240742736E+02 0.12262339371E+02
 0.12111603197E+02 0.11750772592E+02 0.11180197631E+02 0.10442842871E+02 0.95882007394E+01
 0.86698105504E+01 0.82524771644E+01 0.74106592508E+01 0.66127778591E+01 0.58887963371E+01
 0.52560921033E+01 0.47214181384E+01 0.42843766057E+01 0.39410397181E+01 0.36867542720E+01
 0.35177583218E+01 0.34317848045E+01 0.34281562047E+01 0.35078230895E+01 0.36734309470E+01
 0.39290736346E+01 0.42792708660E+01 0.47269452450E+01 0.52706458617E+01 0.59016959985E+01
 0.66022845834E+01 0.73456472934E+01 0.80990320919E+01 0.88290816036E+01 0.95077977517E+01
 0.10116191805E+02 0.10639411657E+02 0.11070607404E+02 0.11410683235E+02 0.11653404642E+02
 0.11777457563E+02 0.11750771144E+02 0.11545155846E+02 0.11153904374E+02 0.10593597033E+02
 0.98935478190E+01 0.90965265711E+01 0.87242511371E+01 0.79628950198E+01 0.72057121395E+01
 0.64877304116E+01 0.58332822201E+01 0.52560921033E+01 0.47615945953E+01 0.43501625976E+01
 0.40200106976E+01 0.37690808910E+01 0.35958547850E+01 0.34994800470E+01 0.34797345906E+01
 0.35371722110E+01 0.36734178008E+01 0.38912133751E+01 0.41937501426E+01 0.45830963805E+01
 0.50579876902E+01 0.56115784883E+01 0.62299146751E+01 0.68919670993E+01 0.75717530878E+01
 0.82422700912E+01 0.88798081168E+01 0.94665330919E+01 0.99898694006E+01 0.10438908141E+02
 0.10799947985E+02 0.11054730433E+02 0.11180196980E+02 0.11153903171E+02 0.10961224748E+02
 0.10600438467E+02 0.10085839876E+02 0.94469387496E+01 0.91330423510E+01 0.84926804078E+01
 0.78147977720E+01 0.71365511330E+01 0.64877304116E+01 0.58887963371E+01 0.53515547437E+01
 0.48815803735E+01 0.44810467665E+01 0.41508617606E+01 0.38916916615E+01 0.37041124487E+01
 0.35884306682E+01 0.35446609279E+01 0.35728639565E+01 0.36736988681E+01 0.38487503383E+01
 0.41001826226E+01 0.44295563849E+01 0.48360657036E+01 0.53147193138E+01 0.58550334620E+01
 0.64408595372E+01 0.70517859524E+01 0.76659382382E+01 0.82630765635E+01 0.88263471464E+01
 0.93416170388E+01 0.97947892855E+01 0.10168866782E+02 0.10442843388E+02 0.10593596361E+02
 0.10600438133E+02 0.10450709487E+02 0.10144355139E+02 0.96958790045E+01 0.94512319092E+01
 0.89713645755E+01 0.84141545106E+01 0.78147977720E+01 0.72057121395E+01 0.66127778591E+01
 0.60540331432E+01 0.55407158626E+01 0.50796283658E+01 0.46754680887E+01 0.43321797278E+01
 0.40531945434E+01 0.38410600492E+01 0.36970995055E+01 0.36215029048E+01 0.36138958310E+01
 0.36741409181E+01 0.38029172114E+01 0.40016509347E+01 0.42716537586E+01 0.46126907774E+01
 0.50214437549E+01 0.54903286319E+01 0.60071531330E+01 0.65559998986E+01 0.71192294422E+01
 0.76797283916E+01 0.82220832459E+01 0.87318727919E+01 0.91935161908E+01 0.95882001871E+01
 0.98935473229E+01 0.10085840119E+02 0.10144356346E+02 0.10056377201E+02 0.98211181580E+01
 0.96538698743E+01 0.93679403208E+01 0.89713645755E+01 0.84926804078E+01 0.79628950198E+01
 0.74106592508E+01 0.68590796316E+01 0.63249010923E+01 0.58197770782E+01 0.53524751542E+01
 0.49306651343E+01 0.45615171427E+01 0.42512504060E+01 0.40043603043E+01 0.38232119856E+01
 0.37082838989E+01 0.36589576819E+01 0.36745351111E+01 0.37550339758E+01 0.39013572090E+01
 0.41146895427E+01 0.43953079338E+01 0.47412333414E+01 0.51471467839E+01 0.56039756938E+01
 0.60994744901E+01 0.66197014846E+01 0.71506391499E+01 0.76788540139E+01 0.81905920178E+01
 0.86698081724E+01 0.90965247533E+01 0.94469384437E+01 0.96958811699E+01 0.98211212000E+01
 0.98081510649E+01 0.96538744239E+01 0.95440320750E+01 0.93142931131E+01 0.89822565859E+01
 0.85722747571E+01 0.81109718735E+01 0.76229774736E+01 0.71281682267E+01 0.66411083480E+01
 0.61724017519E+01 0.57308153192E+01 0.53248435172E+01 0.49629924799E+01 0.46530016929E+01
 0.44008066466E+01 0.42099644990E+01 0.40818148794E+01 0.40162404549E+01 0.40126902305E+01
 0.40710177610E+01 0.41917313993E+01 0.43755162245E+01 0.46221960421E+01 0.49295415016E+01
 0.52923493909E+01 0.57021843343E+01 0.61480521759E+01 0.66178297413E+01 0.70996750622E+01
 0.75824064649E+01 0.80543891997E+01 0.85015136084E+01 0.89056255803E+01 0.92447041650E+01
 0.94952535538E+01 0.96363255978E+01 0.95440354891E+01 0.96538739744E+01 0.96363217430E+01
 0.94952500050E+01 0.92447033570E+01 0.89056266760E+01 0.85015145809E+01 0.80543893150E+01
 0.75824063492E+01 0.70996762118E+01 0.66178350218E+01 0.61480646852E+01 0.57022031528E+01
 0.52923670003E+01 0.49295484390E+01 0.46221908364E+01 0.43755081789E+01 0.41917305174E+01
 0.40710239387E+01 0.40126957815E+01 0.40162417983E+01 0.40818160254E+01 0.42099685145E+01
 0.44008086521E+01 0.46529948441E+01 0.49629779855E+01 0.53248295478E+01 0.57308075074E+01
 0.61723992164E+01 0.66411078426E+01 0.71281681614E+01 0.76229772297E+01 0.81109706768E+01
 0.85722733508E+01 0.89822574223E+01 0.93142968358E+01 0.92981242786E+01 0.96197282032E+01
 0.98211209173E+01 0.98912794765E+01 0.98309578361E+01 0.96514527824E+01 0.93712104168E+01
 0.90113998789E+01 0.85919968295E+01 0.81297200244E+01 0.76382976812E+01 0.71303729538E+01
 0.66195428890E+01 0.61211069833E+01 0.56510725912E+01 0.52241154687E+01 0.48517023476E+01
 0.45412077850E+01 0.42961563685E+01 0.41172582268E+01 0.40037895008E+01 0.39548638741E+01
 0.39701463096E+01 0.40498211015E+01 0.41939760335E+01 0.44018084386E+01 0.46710760685E+01
 0.49980505371E+01 0.53779916610E+01 0.58057833444E+01 0.62760505768E+01 0.67821633972E+01
 0.73141734373E+01 0.78565602085E+01 0.83870899743E+01 0.88777830332E+01 0.89354863951E+01
 0.94464686763E+01 0.98578002591E+01 0.10144356773E+02 0.10292332317E+02 0.10300513369E+02
 0.10178746306E+02 0.99441157411E+01 0.96161879627E+01 0.92130937983E+01 0.87498719517E+01
 0.82393944722E+01 0.76948666069E+01 0.71320943747E+01 0.65699729883E+01 0.60288571248E+01
 0.55277700785E+01 0.50819081204E+01 0.47013917589E+01 0.43914051148E+01 0.41533328803E+01
 0.39863626319E+01 0.38890435991E+01 0.38602992798E+01 0.38996700261E+01 0.40069547417E+01
 0.41816669805E+01 0.44227072600E+01 0.47284215499E+01 0.50969266113E+01 0.55262635727E+01
 0.60137857129E+01 0.65544311109E+01 0.71381819318E+01 0.77477191135E+01 0.83575497231E+01
 0.84832152825E+01 0.91504197858E+01 0.97487246768E+01 0.10241339806E+02 0.10600441230E+02
 0.10811001394E+02 0.10871702418E+02 0.10792678268E+02 0.10590839827E+02 0.10284521176E+02
 0.98895688295E+01 0.94183741114E+01 0.88818881111E+01 0.82931131472E+01 0.76698267773E+01
 0.70348336334E+01 0.64135567663E+01 0.58302596767E+01 0.53046832314E+01 0.48502512210E+01
 0.44740359647E+01 0.41780407989E+01 0.39611359181E+01 0.38210032591E+01 0.37555228910E+01
 0.37633443565E+01 0.38438204345E+01 0.39967210179E+01 0.42220962850E+01 0.45203654318E+01
 0.48923893929E+01 0.53390430558E+01 0.58598202526E+01 0.64503819507E+01 0.70995919804E+01
 0.77871681782E+01 0.79712508641E+01 0.87557428723E+01 0.95081152559E+01 0.10183308223E+02
 0.10741439766E+02 0.11153910425E+02 0.11406870445E+02 0.11499816823E+02 0.11446079177E+02
 0.11266467011E+02 0.10977966084E+02 0.10589692072E+02 0.10108081743E+02 0.95423307683E+01
 0.89046062549E+01 0.82146458800E+01 0.74998060671E+01 0.67915792797E+01 0.61205029114E+01
 0.55116554005E+01 0.49821695911E+01 0.45410244896E+01 0.41905917548E+01 0.39290589151E+01
 0.37528825517E+01 0.36586236027E+01 0.36438917375E+01 0.37075842710E+01 0.38498300892E+01
 0.40719699117E+01 0.43765625930E+01 0.47670763849E+01 0.52467714964E+01 0.58164726187E+01
 0.64714118461E+01 0.71979237864E+01 0.74277409407E+01 0.82897021576E+01 0.91583366567E+01
 0.99839158352E+01 0.10717182974E+02 0.11317165010E+02 0.11750781028E+02 0.12001521673E+02
 0.12084780107E+02 0.12032834942E+02 0.11874422392E+02 0.11620511162E+02 0.11263249635E+02
 0.10788641675E+02 0.10196325714E+02 0.95075642704E+01 0.87470931491E+01 0.79478665952E+01
 0.71486433250E+01 0.63872504923E+01 0.56947201512E+01 0.50920459125E+01 0.45898955540E+01
 0.41905957658E+01 0.38912141923E+01 0.36866412507E+01 0.35719337462E+01 0.35436527119E+01
 0.36003861092E+01 0.37428607119E+01 0.39739356114E+01 0.42983920621E+01 0.47220950883E+01
 0.52500662398E+01 0.58833675781E+01 0.66152691785E+01 0.68760004062E+01 0.77783017309E+01
 0.87250934021E+01 0.96652565730E+01 0.10542937884E+02 0.11304731244E+02 0.11889553800E+02
 0.12262348494E+02 0.12438892721E+02 0.12469276975E+02 0.12409170217E+02 0.12291590187E+02
 0.12111825405E+02 0.11832840375E+02 0.11409057533E+02 0.10817376326E+02 0.10080114358E+02
 0.92474264774E+01 0.83618683929E+01 0.74706920029E+01 0.66198249960E+01 0.58465556105E+01
 0.51755830466E+01 0.46188260467E+01 0.41780481924E+01 0.38487616501E+01 0.36240296795E+01
 0.34973549649E+01 0.34643956172E+01 0.35237167364E+01 0.36769790026E+01 0.39288279534E+01
 0.42863133065E+01 0.47573519033E+01 0.53478476284E+01 0.60576282127E+01 0.63337215429E+01
 0.72435792285E+01 0.82331014211E+01 0.92526155218E+01 0.10242289608E+02 0.11137103438E+02
 0.11845076660E+02 0.12302136117E+02 0.12514665966E+02 0.12549149173E+02 0.12499489072E+02
 0.12444506383E+02 0.12412633209E+02 0.12369311027E+02 0.12233546298E+02 0.11916891881E+02
 0.11367717310E+02 0.10601316300E+02 0.96968311950E+01 0.87256736518E+01 0.77448503598E+01
 0.68088346225E+01 0.59610785334E+01 0.52295238400E+01 0.46267279990E+01 0.41533354574E+01
 0.38029301826E+01 0.35666166801E+01 0.34364488173E+01 0.34074739311E+01 0.34786268760E+01
 0.36528948543E+01 0.39369679523E+01 0.43401136902E+01 0.48717366692E+01 0.55373909967E+01
 0.58141107741E+01 0.67031015107E+01 0.77035574993E+01 0.87698899708E+01 0.98409453033E+01
 0.10844166488E+02 0.11659808020E+02 0.12180595407E+02 0.12385074796E+02 0.12342475624E+02