   2   2   0   0
  0.1577926E+02  0.3685887E-09  0.3685887E-09  0.3685887E-09  0.5000000E-15
  1.000000000000000E-004
  CAR 
 unknown system                          
     22.72064317     -6.62704563  301      8.69909425      1.00000000
     -6.627  0.0000E+00  0.0000E+00
     -6.529  0.0000E+00  0.0000E+00
     -6.431  0.0000E+00  0.0000E+00
     -6.334  0.0000E+00  0.0000E+00
     -6.236  0.0000E+00  0.0000E+00
     -6.138  0.0000E+00  0.0000E+00
     -6.040  0.0000E+00  0.0000E+00
     -5.942  0.0000E+00  0.0000E+00
     -5.844  0.0000E+00  0.0000E+00
     -5.747  0.1300E-16  0.1272E-17
     -5.649  0.2659E-14  0.2614E-15
     -5.551  0.3403E-12  0.3356E-13
     -5.453  0.2722E-10  0.2697E-11
     -5.355  0.1362E-08  0.1359E-09
     -5.257  0.4268E-07  0.4311E-08
     -5.160  0.8388E-06  0.8637E-07
     -5.062  0.1036E-04  0.1099E-05
     -4.964  0.8049E-04  0.8974E-05
     -4.866  0.3953E-03  0.4764E-04
     -4.768  0.1237E-02  0.1686E-03
     -4.671  0.2528E-02  0.4159E-03
     -4.573  0.3678E-02  0.7757E-03
     -4.475  0.4830E-02  0.1248E-02
     -4.377  0.7395E-02  0.1972E-02
     -4.279  0.1152E-01  0.3099E-02
     -4.181  0.1452E-01  0.4519E-02
     -4.084  0.1429E-01  0.5917E-02
     -3.986  0.1199E-01  0.7090E-02
     -3.888  0.9629E-02  0.8032E-02
     -3.790  0.8732E-02  0.8886E-02
     -3.692  0.1086E-01  0.9948E-02
     -3.594  0.1646E-01  0.1156E-01
     -3.497  0.2284E-01  0.1379E-01
     -3.399  0.2473E-01  0.1621E-01
     -3.301  0.2054E-01  0.1822E-01
     -3.203  0.1606E-01  0.1979E-01
     -3.105  0.1673E-01  0.2143E-01
     -3.007  0.2036E-01  0.2342E-01
     -2.910  0.2147E-01  0.2552E-01
     -2.812  0.1963E-01  0.2744E-01
     -2.714  0.1918E-01  0.2932E-01
     -2.616  0.2187E-01  0.3146E-01
     -2.518  0.2488E-01  0.3389E-01
     -2.421  0.2593E-01  0.3643E-01
     -2.323  0.2534E-01  0.3891E-01
     -2.225  0.2378E-01  0.4123E-01
     -2.127  0.2313E-01  0.4349E-01
     -2.029  0.2648E-01  0.4609E-01
     -1.931  0.3134E-01  0.4915E-01
     -1.834  0.3079E-01  0.5216E-01
     -1.736  0.2413E-01  0.5452E-01
     -1.638  0.1738E-01  0.5622E-01
     -1.540  0.1491E-01  0.5768E-01
     -1.442  0.1759E-01  0.5940E-01
     -1.344  0.2588E-01  0.6193E-01
     -1.247  0.3860E-01  0.6571E-01
     -1.149  0.4914E-01  0.7052E-01
     -1.051  0.5025E-01  0.7543E-01
     -0.953  0.4339E-01  0.7968E-01
     -0.855  0.3658E-01  0.8326E-01
     -0.758  0.3348E-01  0.8653E-01
     -0.660  0.3072E-01  0.8954E-01
     -0.562  0.2578E-01  0.9206E-01
     -0.464  0.2075E-01  0.9409E-01
     -0.366  0.1823E-01  0.9587E-01
     -0.268  0.1968E-01  0.9780E-01
     -0.171  0.2518E-01  0.1003E+00
     -0.073  0.3191E-01  0.1034E+00
      0.025  0.3621E-01  0.1069E+00
      0.123  0.3872E-01  0.1107E+00
      0.221  0.4253E-01  0.1149E+00
      0.319  0.4742E-01  0.1195E+00
      0.416  0.4981E-01  0.1244E+00
      0.514  0.4775E-01  0.1291E+00
      0.612  0.4381E-01  0.1333E+00
      0.710  0.4103E-01  0.1374E+00
      0.808  0.4090E-01  0.1414E+00
      0.906  0.4335E-01  0.1456E+00
      1.003  0.4510E-01  0.1500E+00
      1.101  0.4687E-01  0.1546E+00
      1.199  0.5336E-01  0.1598E+00
      1.297  0.5892E-01  0.1656E+00
      1.395  0.5187E-01  0.1707E+00
      1.492  0.3466E-01  0.1740E+00
      1.590  0.2067E-01  0.1761E+00
      1.688  0.1565E-01  0.1776E+00
      1.786  0.1550E-01  0.1791E+00
      1.884  0.1627E-01  0.1807E+00
      1.982  0.1976E-01  0.1826E+00
      2.079  0.2911E-01  0.1855E+00
      2.177  0.4160E-01  0.1896E+00
      2.275  0.5099E-01  0.1945E+00
      2.373  0.5376E-01  0.1998E+00
      2.471  0.5089E-01  0.2048E+00
      2.569  0.4706E-01  0.2094E+00
      2.666  0.4601E-01  0.2139E+00
      2.764  0.4682E-01  0.2185E+00
      2.862  0.4784E-01  0.2231E+00
      2.960  0.4908E-01  0.2279E+00
      3.058  0.4726E-01  0.2326E+00
      3.156  0.3776E-01  0.2363E+00
      3.253  0.2538E-01  0.2387E+00
      3.351  0.2082E-01  0.2408E+00
      3.449  0.2611E-01  0.2433E+00
      3.547  0.3340E-01  0.2466E+00
      3.645  0.3615E-01  0.2501E+00
      3.742  0.3463E-01  0.2535E+00
      3.840  0.3267E-01  0.2567E+00
      3.938  0.3501E-01  0.2601E+00
      4.036  0.4601E-01  0.2646E+00
      4.134  0.6434E-01  0.2709E+00
      4.232  0.7881E-01  0.2787E+00
      4.329  0.7977E-01  0.2865E+00
      4.427  0.7220E-01  0.2935E+00
      4.525  0.6445E-01  0.2998E+00
      4.623  0.5596E-01  0.3053E+00
      4.721  0.4632E-01  0.3098E+00
      4.819  0.4058E-01  0.3138E+00
      4.916  0.4125E-01  0.3178E+00
      5.014  0.4330E-01  0.3221E+00
      5.112  0.4043E-01  0.3260E+00
      5.210  0.3532E-01  0.3295E+00
      5.308  0.3683E-01  0.3331E+00
      5.406  0.4721E-01  0.3377E+00
      5.503  0.5900E-01  0.3435E+00
      5.601  0.6404E-01  0.3497E+00
      5.699  0.6365E-01  0.3560E+00
      5.797  0.6582E-01  0.3624E+00
      5.895  0.6961E-01  0.3692E+00
      5.992  0.6650E-01  0.3757E+00
      6.090  0.5685E-01  0.3813E+00
      6.188  0.4852E-01  0.3860E+00
      6.286  0.4678E-01  0.3906E+00
      6.384  0.5213E-01  0.3957E+00
      6.482  0.5982E-01  0.4016E+00
      6.579  0.6271E-01  0.4077E+00
      6.677  0.5931E-01  0.4135E+00
      6.775  0.5569E-01  0.4189E+00
      6.873  0.5931E-01  0.4247E+00
      6.971  0.7004E-01  0.4316E+00
      7.069  0.8069E-01  0.4395E+00
      7.166  0.8789E-01  0.4481E+00
      7.264  0.9122E-01  0.4570E+00
      7.362  0.8749E-01  0.4656E+00
      7.460  0.7741E-01  0.4731E+00
      7.558  0.6576E-01  0.4796E+00
      7.655  0.5490E-01  0.4849E+00
      7.753  0.4685E-01  0.4895E+00
      7.851  0.4287E-01  0.4937E+00
      7.949  0.4088E-01  0.4977E+00
      8.047  0.3981E-01  0.5016E+00
      8.145  0.4081E-01  0.5056E+00
      8.242  0.4315E-01  0.5098E+00
      8.340  0.4389E-01  0.5141E+00
      8.438  0.4370E-01  0.5184E+00
      8.536  0.4851E-01  0.5231E+00
      8.634  0.5945E-01  0.5290E+00
      8.732  0.6719E-01  0.5355E+00
      8.829  0.6311E-01  0.5417E+00
      8.927  0.5335E-01  0.5469E+00
      9.025  0.5285E-01  0.5521E+00
      9.123  0.6177E-01  0.5581E+00
      9.221  0.6139E-01  0.5641E+00
      9.319  0.4354E-01  0.5684E+00
      9.416  0.2323E-01  0.5707E+00
      9.514  0.1542E-01  0.5722E+00
      9.612  0.2028E-01  0.5742E+00
      9.710  0.2989E-01  0.5771E+00
      9.808  0.3715E-01  0.5807E+00
      9.905  0.4095E-01  0.5847E+00
     10.003  0.4452E-01  0.5891E+00
     10.101  0.4816E-01  0.5938E+00
     10.199  0.4831E-01  0.5985E+00
     10.297  0.4596E-01  0.6030E+00
     10.395  0.4755E-01  0.6077E+00
     10.492  0.5652E-01  0.6132E+00
     10.590  0.6878E-01  0.6199E+00
     10.688  0.7585E-01  0.6274E+00
     10.786  0.7533E-01  0.6347E+00
     10.884  0.7362E-01  0.6419E+00
     10.982  0.7255E-01  0.6490E+00
     11.079  0.6700E-01  0.6556E+00
     11.177  0.5800E-01  0.6612E+00
     11.275  0.5624E-01  0.6667E+00
     11.373  0.6918E-01  0.6735E+00
     11.471  0.8990E-01  0.6823E+00
     11.569  0.1054E+00  0.6926E+00
     11.666  0.1092E+00  0.7033E+00
     11.764  0.1007E+00  0.7132E+00
     11.862  0.8193E-01  0.7212E+00
     11.960  0.5965E-01  0.7270E+00
     12.058  0.4296E-01  0.7312E+00
     12.155  0.3430E-01  0.7346E+00
     12.253  0.2934E-01  0.7374E+00
     12.351  0.2940E-01  0.7403E+00
     12.449  0.4161E-01  0.7444E+00
     12.547  0.6275E-01  0.7505E+00
     12.645  0.7762E-01  0.7581E+00
     12.742  0.7769E-01  0.7657E+00
     12.840  0.7093E-01  0.7727E+00
     12.938  0.6864E-01  0.7794E+00
     13.036  0.7013E-01  0.7862E+00
     13.134  0.6724E-01  0.7928E+00
     13.232  0.5794E-01  0.7985E+00
     13.329  0.4836E-01  0.8032E+00
     13.427  0.4615E-01  0.8077E+00
     13.525  0.5786E-01  0.8134E+00
     13.623  0.8343E-01  0.8215E+00
     13.721  0.1074E+00  0.8320E+00
     13.819  0.1129E+00  0.8431E+00
     13.916  0.1044E+00  0.8533E+00
     14.014  0.9436E-01  0.8625E+00
     14.112  0.8436E-01  0.8708E+00
     14.210  0.7125E-01  0.8778E+00
     14.308  0.5831E-01  0.8835E+00
     14.405  0.5250E-01  0.8886E+00
     14.503  0.5682E-01  0.8942E+00
     14.601  0.6672E-01  0.9007E+00
     14.699  0.7443E-01  0.9080E+00
     14.797  0.7510E-01  0.9153E+00
     14.895  0.6877E-01  0.9220E+00
     14.992  0.6051E-01  0.9280E+00
     15.090  0.5650E-01  0.9335E+00
     15.188  0.5772E-01  0.9391E+00
     15.286  0.6136E-01  0.9451E+00
     15.384  0.6343E-01  0.9513E+00
     15.482  0.6030E-01  0.9572E+00
     15.579  0.5398E-01  0.9625E+00
     15.677  0.4774E-01  0.9672E+00
     15.775  0.4055E-01  0.9712E+00
     15.873  0.3360E-01  0.9744E+00
     15.971  0.3075E-01  0.9774E+00
     16.069  0.3216E-01  0.9806E+00
     16.166  0.3476E-01  0.9840E+00
     16.264  0.3832E-01  0.9877E+00
     16.362  0.4635E-01  0.9923E+00
     16.460  0.5772E-01  0.9979E+00
     16.558  0.6568E-01  0.1004E+01
     16.655  0.6735E-01  0.1011E+01
     16.753  0.6315E-01  0.1017E+01
     16.851  0.5308E-01  0.1022E+01
     16.949  0.3972E-01  0.1026E+01
     17.047  0.2691E-01  0.1029E+01
     17.145  0.1743E-01  0.1031E+01
     17.242  0.1299E-01  0.1032E+01
     17.340  0.1260E-01  0.1033E+01
     17.438  0.1400E-01  0.1034E+01
     17.536  0.1689E-01  0.1036E+01
     17.634  0.2282E-01  0.1038E+01
     17.732  0.3170E-01  0.1041E+01
     17.829  0.3837E-01  0.1045E+01
     17.927  0.3695E-01  0.1049E+01
     18.025  0.2828E-01  0.1052E+01
     18.123  0.1809E-01  0.1053E+01
     18.221  0.1029E-01  0.1054E+01
     18.318  0.5393E-02  0.1055E+01
     18.416  0.2641E-02  0.1055E+01
     18.514  0.1618E-02  0.1055E+01
     18.612  0.2610E-02  0.1056E+01
     18.710  0.5782E-02  0.1056E+01
     18.808  0.9868E-02  0.1057E+01
     18.905  0.1258E-01  0.1058E+01
     19.003  0.1260E-01  0.1059E+01
     19.101  0.1010E-01  0.1060E+01
     19.199  0.6238E-02  0.1061E+01
     19.297  0.2918E-02  0.1061E+01
     19.395  0.1650E-02  0.1062E+01
     19.492  0.2670E-02  0.1062E+01
     19.590  0.4846E-02  0.1062E+01
     19.688  0.6028E-02  0.1063E+01
     19.786  0.5332E-02  0.1063E+01
     19.884  0.4225E-02  0.1064E+01
     19.982  0.3754E-02  0.1064E+01
     20.079  0.3508E-02  0.1065E+01
     20.177  0.3375E-02  0.1065E+01
     20.275  0.3290E-02  0.1065E+01
     20.373  0.2684E-02  0.1065E+01
     20.471  0.1785E-02  0.1066E+01
     20.568  0.1613E-02  0.1066E+01
     20.666  0.2350E-02  0.1066E+01
     20.764  0.2897E-02  0.1066E+01
     20.862  0.2348E-02  0.1067E+01
     20.960  0.1208E-02  0.1067E+01
     21.058  0.3922E-03  0.1067E+01
     21.155  0.8027E-04  0.1067E+01
     21.253  0.1035E-04  0.1067E+01
     21.351  0.8385E-06  0.1067E+01
     21.449  0.4268E-07  0.1067E+01
     21.547  0.1362E-08  0.1067E+01
     21.645  0.2722E-10  0.1067E+01
     21.742  0.3403E-12  0.1067E+01
     21.840  0.2659E-14  0.1067E+01
     21.938  0.1300E-16  0.1067E+01
     22.036  0.0000E+00  0.1067E+01
     22.134  0.0000E+00  0.1067E+01
     22.232  0.0000E+00  0.1067E+01
     22.329  0.0000E+00  0.1067E+01
     22.427  0.0000E+00  0.1067E+01
     22.525  0.0000E+00  0.1067E+01
     22.623  0.0000E+00  0.1067E+01
     22.721  0.0000E+00  0.1067E+01
