unknown system                          
   1.00000000000000     
    -2.286680    2.286680    1.304871
     2.286680   -2.286680    1.304871
     2.286680    2.286680   -1.304871
   Si
     2
Direct
  0.000000  0.000000  0.000000
  0.250000  0.750000  0.500000
 
   32   32   32
 -4.9444     -3.9694     -1.3192      2.2882      5.9555      8.8983      10.651      11.133      10.596      9.4841    
  8.2375      7.0559      6.0379      5.2381      4.6740      4.3417      4.2323      4.3417      4.6739      5.2381    
  6.0379      7.0559      8.2375      9.4841      10.596      11.133      10.651      8.8983      5.9555      2.2882    
 -1.3192     -3.9694     -3.9694     -4.4158     -2.9785     -.67891E-01  3.5339      6.9538      9.4997      10.824    
  10.951      10.199      9.0263      7.8036      6.6783      5.7349      5.0155      4.5297      4.2713      4.2322    
  4.4108      4.8139      5.4509      6.3217      7.4003      8.6206      9.8716      10.894      11.222      10.450    
  8.4072      5.2741      1.6093     -1.7595     -1.3192     -2.9786     -2.9110     -1.1492      1.7987      5.1443    
  8.0941      10.084      10.896      10.652      9.7122      8.5182      7.3379      6.2842      5.4259      4.7927    
  4.3875      4.2026      4.2316      4.4758      4.9439      5.6446      6.5733      7.6958      8.9366      10.172    
  11.097      11.254      10.295      8.1320      5.0325      1.6093      2.2882     -.67907E-01 -1.1492     -.65793    
  1.2433      3.9985      6.8695      9.1855      10.529      10.810      10.228      9.1594      7.9803      6.8600    
  5.8906      5.1242      4.5791      4.2533      4.1387      4.2311      4.5344      5.0584      5.8105      6.7814    
  7.9294      9.1720      10.375      11.212      11.261      10.237      8.1320      5.2741      5.9555      3.5339    
  1.7987      1.2433      2.0139      3.8561      6.2191      8.4611      10.060      10.747      10.542      9.6957    
  8.5740      7.4345      6.3900      5.5135      4.8415      4.3830      4.1325      4.0824      4.2309      4.5841    
  5.1526      5.9415      6.9367      8.0907      9.3171      10.477      11.250      11.261      10.295      8.4072    
  8.8983      6.9538      5.1443      3.9985      3.8561      4.7383      6.3451      8.1772      9.7194      10.603    
  10.695      10.102      9.0976      7.9824      6.9028      5.9462      5.1670      4.5880      4.2112      4.0292    
  4.0357      4.2311      4.6234      5.2228      6.0320      7.0325      8.1731      9.3662      10.477      11.212    
  11.254      10.450      10.651      9.4996      8.0941      6.8695      6.2191      6.3451      7.1818      8.4281    
  9.6689      10.526      10.774      10.392      9.5409      8.4854      7.4089      6.4062      5.5451      4.8629    
  4.3718      4.0690      3.9465      3.9999      4.2316      4.6505      5.2661      6.0782      7.0649      8.1731    
  9.3171      10.375      11.097      11.222      11.133      10.824      10.084      9.1855      8.4611      8.1772    
  8.4281      9.1010      9.9283      10.595      10.855      10.603      9.9001      8.9332      7.8926      6.8779    
  5.9639      5.2001      4.6102      4.1987      3.9599      3.8865      3.9758      4.2321      4.6644      5.2807    
  6.0782      7.0325      8.0907      9.1720      10.172      10.894      10.596      10.951      10.896      10.529    
  10.060      9.7194      9.6689      9.9283      10.373      10.791      10.967      10.768      10.182      9.3197    
  8.3423      7.3480      6.4120      5.5918      4.9219      4.4157      4.0727      3.8863      3.8502      3.9638    
  4.2323      4.6644      5.2661      6.0320      6.9367      7.9294      8.9366      9.8716      9.4841      10.199    
  10.652      10.810      10.747      10.603      10.526      10.595      10.791      10.999      11.071      10.883    
  10.388      9.6374      8.7476      7.8044      6.8785      6.0303      5.3025      4.7181      4.2838      3.9963    
  3.8492      3.8381      3.9638      4.2321      4.6505      5.2228      5.9415      6.7814      7.6958      8.6206    
  8.2375      9.0263      9.7121      10.228      10.542      10.695      10.774      10.855      10.967      11.071    
  11.083      10.910      10.502      9.8727      9.0952      8.2342      7.3515      6.5068      5.7476      5.1050    
  4.5940      4.2172      3.9707      3.8492      3.8502      3.9758      4.2316      4.6234      5.1526      5.8105    
  6.5733      7.4003      7.0559      7.8036      8.5182      9.1594      9.6957      10.102      10.392      10.603    
  10.768      10.883      10.910      10.795      10.494      10.005      9.3669      8.6201      7.8161      7.0097    
  6.2499      5.5740      5.0049      4.5523      4.2172      3.9963      3.8863      3.8865      3.9999      4.2311    
  4.5841      5.0584      5.6446      6.3217      6.0379      6.6783      7.3379      7.9804      8.5740      9.0976    
  9.5409      9.9001      10.182      10.388      10.502      10.494      10.334      10.013      9.5400      8.9401    
  8.2517      7.5218      6.7974      6.1188      5.5156      5.0049      4.5940      4.2838      4.0727      3.9599    
  3.9465      4.0357      4.2309      4.5344      4.9439      5.4509      5.2381      5.7349      6.2842      6.8600    
  7.4345      7.9824      8.4854      8.9332      9.3197      9.6374      9.8727      10.005      10.013      9.8769    
  9.5925      9.1695      8.6329      8.0193      7.3701      6.7254      6.1188      5.5740      5.1050      4.7181    
  4.4157      4.1987      4.0690      4.0292      4.0824      4.2311      4.4758      4.8139      4.6739      5.0155    
  5.4259      5.8906      6.3900      6.9028      7.4089      7.8926      8.3423      8.7476      9.0952      9.3669    
  9.5400      9.5925      9.5088      9.2851      8.9319      8.4726      7.9399      7.3701      6.7974      6.2499    
  5.7476      5.3025      4.9219      4.6102      4.3718      4.2112      4.1325      4.1387      4.2316      4.4108    
  4.3417      4.5297      4.7927      5.1242      5.5135      5.9463      6.4062      6.8779      7.3480      7.8044    
  8.2342      8.6200      8.9401      9.1695      9.2851      9.2712      9.1233      8.8502      8.4726      8.0193    
  7.5218      7.0097      6.5068      6.0303      5.5918      5.2001      4.8629      4.5880      4.3830      4.2533    
  4.2026      4.2322      4.2323      4.2713      4.3876      4.5792      4.8415      5.1670      5.5451      5.9639    
  6.4120      6.8785      7.3515      7.8161      8.2517      8.6329      8.9319      9.1233      9.1892      9.1233    
  8.9319      8.6329      8.2517      7.8161      7.3515      6.8785      6.4120      5.9639      5.5451      5.1670    
  4.8415      4.5791      4.3875      4.2713      4.3417      4.2322      4.2027      4.2534      4.3830      4.5881    
  4.8629      5.2001      5.5918      6.0303      6.5068      7.0097      7.5218      8.0193      8.4726      8.8502    
  9.1233      9.2712      9.2851      9.1695      8.9401      8.6201      8.2342      7.8044      7.3480      6.8779    
  6.4062      5.9462      5.5135      5.1242      4.7927      4.5297      4.6740      4.4109      4.2317      4.1388    
  4.1325      4.2113      4.3719      4.6102      4.9219      5.3025      5.7476      6.2499      6.7974      7.3701    
  7.9399      8.4726      8.9319      9.2851      9.5088      9.5925      9.5400      9.3669      9.0952      8.7476    
  8.3423      7.8926      7.4089      6.9028      6.3900      5.8906      5.4259      5.0155      5.2381      4.8140    
  4.4759      4.2312      4.0825      4.0292      4.0690      4.1987      4.4157      4.7181      5.1050      5.5740    
  6.1188      6.7254      7.3701      8.0193      8.6329      9.1695      9.5925      9.8769      10.013      10.005    
  9.8727      9.6374      9.3197      8.9332      8.4854      7.9824      7.4345      6.8600      6.2842      5.7349    
  6.0379      5.4509      4.9440      4.5344      4.2310      4.0357      3.9465      3.9599      4.0727      4.2838    
  4.5940      5.0049      5.5156      6.1188      6.7974      7.5218      8.2517      8.9401      9.5400      10.013    
  10.334      10.494      10.502      10.388      10.182      9.9001      9.5409      9.0976      8.5740      7.9803    
  7.3379      6.6783      7.0559      6.3217      5.6446      5.0584      4.5841      4.2311      3.9999      3.8865    
  3.8862      3.9962      4.2172      4.5523      5.0049      5.5740      6.2499      7.0097      7.8161      8.6200    
  9.3669      10.005      10.494      10.795      10.910      10.883      10.768      10.603      10.392      10.102    
  9.6957      9.1594      8.5182      7.8036      8.2375      7.4003      6.5733      5.8105      5.1526      4.6233    
  4.2315      3.9758      3.8501      3.8491      3.9706      4.2172      4.5940      5.1050      5.7476      6.5068    
  7.3515      8.2342      9.0952      9.8727      10.502      10.910      11.083      11.071      10.967      10.855    
  10.774      10.695      10.542      10.228      9.7122      9.0263      9.4841      8.6207      7.6958      6.7813    
  5.9415      5.2228      4.6504      4.2320      3.9637      3.8380      3.8491      3.9962      4.2838      4.7181    
  5.3025      6.0303      6.8785      7.8044      8.7476      9.6374      10.388      10.883      11.071      10.999    
  10.791      10.595      10.526      10.603      10.747      10.810      10.652      10.199      10.596      9.8716    
  8.9366      7.9294      6.9367      6.0320      5.2660      4.6643      4.2322      3.9637      3.8501      3.8862    
  4.0727      4.4157      4.9219      5.5918      6.4120      7.3480      8.3423      9.3197      10.182      10.768    
  10.967      10.791      10.373      9.9283      9.6689      9.7194      10.060      10.529      10.896      10.951    
  11.133      10.894      10.172      9.1721      8.0907      7.0325      6.0781      5.2806      4.6643      4.2320    
  3.9758      3.8865      3.9599      4.1987      4.6102      5.2001      5.9639      6.8779      7.8926      8.9332    
  9.9001      10.603      10.855      10.595      9.9283      9.1010      8.4281      8.1772      8.4611      9.1855    
  10.084      10.824      10.651      11.222      11.097      10.375      9.3172      8.1731      7.0649      6.0781    
  5.2660      4.6504      4.2315      3.9999      3.9465      4.0690      4.3719      4.8629      5.5451      6.4062    
  7.4089      8.4854      9.5409      10.392      10.774      10.526      9.6689      8.4281      7.1818      6.3451    
  6.2191      6.8695      8.0941      9.4997      8.8983      10.451      11.254      11.212      10.477      9.3662    
  8.1731      7.0325      6.0320      5.2228      4.6233      4.2311      4.0357      4.0292      4.2113      4.5881    
  5.1670      5.9463      6.9028      7.9824      9.0976      10.102      10.695      10.603      9.7194      8.1772    
  6.3451      4.7383      3.8561      3.9985      5.1443      6.9538      5.9555      8.4072      10.295      11.261    
  11.250      10.477      9.3172      8.0907      6.9367      5.9415      5.1526      4.5841      4.2310      4.0825    
  4.1325      4.3830      4.8415      5.5135      6.3900      7.4345      8.5740      9.6957      10.542      10.747    
  10.060      8.4611      6.2191      3.8561      2.0139      1.2433      1.7987      3.5339      2.2882      5.2741    
  8.1321      10.237      11.261      11.212      10.375      9.1721      7.9294      6.7813      5.8105      5.0584    
  4.5344      4.2312      4.1388      4.2534      4.5792      5.1242      5.8906      6.8600      7.9804      9.1594    
  10.228      10.810      10.529      9.1855      6.8695      3.9985      1.2433     -.65793     -1.1492     -.67891E-01
 -1.3192      1.6093      5.0325      8.1321      10.295      11.254      11.097      10.172      8.9366      7.6958    
  6.5733      5.6446      4.9440      4.4759      4.2317      4.2027      4.3876      4.7927      5.4259      6.2842    
  7.3379      8.5182      9.7121      10.652      10.896      10.084      8.0941      5.1443      1.7987     -1.1492    
 -2.9110     -2.9785     -3.9694     -1.7594      1.6093      5.2741      8.4072      10.451      11.222      10.894    
  9.8716      8.6207      7.4003      6.3217      5.4509      4.8140      4.4109      4.2322      4.2713      4.5297    
  5.0155      5.7349      6.6783      7.8036      9.0263      10.199      10.951      10.824      9.4996      6.9538    
  3.5339     -.67907E-01 -2.9786     -4.4158     -3.9693     -3.2751     -.96121      2.3442      5.8059      8.6572    
  10.409      10.938      10.449      9.3594      8.1097      6.9157      5.8789      5.0565      4.4672      4.1066    
  3.9638      4.0329      4.3167      4.8248      5.5643      6.5247      7.6608      8.8836      10.031      10.710    
  10.480      9.0628      6.4883      3.1502     -.24385     -2.8527     -3.2751     -3.9695     -2.8528     -.24383    
  3.1503      6.4883      9.0627      10.480      10.710      10.031      8.8835      7.6608      6.5247      5.5644    
  4.8248      4.3167      4.0329      3.9639      4.1066      4.4672      5.0565      5.8789      6.9157      8.1097    
  9.3593      10.449      10.938      10.409      8.6572      5.8058      2.3442     -.96113     -.84900     -2.7322    
 -2.9785     -1.5321      1.1856      4.4363      7.4253      9.5448      10.516      10.406      9.5437      8.3709    
  7.1909      6.1271      5.2535      4.6027      4.1784      3.9720      3.9758      4.1904      4.6245      5.2891    
  6.1847      7.2843      8.5201      9.7791      10.794      11.115      10.372      8.4350      5.5129      2.1587    
  2.6306     0.77527E-01 -1.3073     -1.1493     0.48186      3.0999      5.9867      8.4405      9.9819      10.454    
  10.008      9.0035      7.8393      6.7178      5.7383      4.9583      4.3986      4.0575      3.9263      3.9999    
  4.2818      4.7829      5.5134      6.4692      7.6154      8.8756      10.126      11.067      11.269      10.419    
  8.4626      5.6734      6.2674      3.6860      1.6742     0.78203      1.2433      2.8872      5.2080      7.5553    
  9.3542      10.266      10.250      9.5188      8.4370      7.3074      6.2592      5.3727      4.6892      4.2195    
  3.9585      3.8980      4.0357      4.3778      4.9367      5.7208      6.7207      7.8947      9.1609      10.389    
  11.270      11.414      10.571      8.7513      9.2539      7.1957      5.1566      3.6978      3.2289      3.8561    
  5.3443      7.2131      8.9160      10.022      10.329      9.8917      8.9637      7.8699      6.7941      5.8315    
  5.0430      4.4554      4.0718      3.8850      3.8884      4.0824      4.4756      5.0803      5.9026      6.9282    
  8.1099      9.3630      10.557      11.397      11.545      10.811      11.091      9.8760      8.3016      6.8144    
  5.8542      5.6957      6.3450      7.5429      8.8706      9.9054      10.359      10.151      9.4066      8.3877    
  7.3221      6.3178      5.4494      4.7598      4.2639      3.9596      3.8392      3.8980      4.1388      4.5715    
  5.2079      6.0510      7.0821      8.2504      9.4710      10.621      11.439      11.641      11.667      11.341    
  10.497      9.4031      8.4163      7.8551      7.8787      8.4280      9.2553      10.027      10.447      10.356    
  9.7690      8.8525      7.8273      6.8148      5.8955      5.1251      4.5311      4.1198      3.8860      3.8224    
  3.9263      4.2026      4.6618      5.3141      6.1591      7.1747      8.3082      9.4773      10.572      11.380    
  11.204      11.585      11.486      10.996      10.329      9.7505      9.4699      9.5593      9.9283      10.367    
  10.636      10.555      10.070      9.2610      8.2985      7.3079      6.3682      5.5420      4.8682      4.3628    
  4.0264      3.8522      3.8343      3.9720      4.2712      4.7424      5.3936      6.2212      7.2003      8.2787    
  9.3790      10.407      10.128      10.902      11.364      11.466      11.276      10.952      10.673      10.561    
  10.631      10.791      10.881      10.752      10.321      9.6084      8.7264      7.7846      6.8548      6.0009    
  5.2694      4.6861      4.2590      3.9854      3.8586      3.8741      4.0329      4.3416      4.8097      5.4424    
  6.2334      7.1562      8.1611      9.1781      8.8826      9.7451      10.479      10.993      11.247      11.284    
  11.208      11.125      11.095      11.103      11.071      10.897      10.504      9.8833      9.0989      8.2317    
  7.3424      6.4911      5.7280      5.0867      4.5836      4.2219      3.9974      3.9044      3.9400      4.1066    
  4.4108      4.8602      5.4576      6.1939      7.0432      7.9597      7.6834      8.5060      9.2789      9.9536    
  10.483      10.832      11.020      11.103      11.135      11.135      11.078      10.910      10.578      10.062    
  9.3969      8.6320      7.8151      6.9996      6.2351      5.5606      5.0001      4.5639      4.2526      4.0620    
  3.9881      4.0299      4.1904      4.4759      4.8916      5.4377      6.1040      6.8658      6.6325      7.3460    
  8.0666      8.7507      9.3604      9.8698      10.261      10.533      10.708      10.802      10.815      10.723    
  10.494      10.113      9.5951      8.9630      8.2526      7.5088      6.7778      6.1003      5.5064      5.0134    
  4.6283      4.3509      4.1781      4.1080      4.1413      4.2818      4.5344      4.9022      5.3834      5.9673    
  5.7908      6.3552      6.9642      7.5854      8.1850      8.7332      9.2093      9.6034      9.9128      10.137    
  10.272      10.307      10.225      10.013      9.6670      9.1980      8.6292      7.9951      7.3361      6.6915    
  6.0946      5.5689      5.1278      4.7765      4.5152      4.3433      4.2612      4.2715      4.3779      4.5842    
  4.8916      5.2970      5.1828      5.5831      6.0476      6.5566      7.0853      7.6075      8.1001      8.5464    
  8.9364      9.2640      9.5220      9.6993      9.7801      9.7483      9.5925      9.3115      8.9162      8.4295    
  7.8828      7.3112      6.7481      6.2209      5.7485      5.3418      5.0058      4.7426      4.5543      4.4444    
  4.4168      4.4756      4.6234      4.8602      4.8097      5.0463      5.3547      5.7250      6.1425      6.5885    
  7.0433      7.4894      7.9134      8.3054      8.6564      8.9548      9.1847      9.3271      9.3645      9.2851    
  9.0871      8.7802      8.3845      7.9275      7.4393      6.9482      6.4770      6.0413      5.6508      5.3113    
  5.0279      4.8061      4.6525      4.5728      4.5715      4.6506      4.6644      4.7424      4.8944      5.1165    
  5.4018      5.7395      6.1158      6.5162      6.9279      7.3407      7.7451      8.1299      8.4796      8.7745    
  8.9925      9.1133      9.1233      9.0183      8.8054      8.5015      8.1299      7.7165      7.2853      6.8550    
  6.4390      6.0464      5.6851      5.3636      5.0917      4.8793      4.7342      4.6617      4.7424      4.6644    
  4.6618      4.7342      4.8792      5.0917      5.3636      5.6851      6.0464      6.4390      6.8550      7.2853    
  7.7165      8.1299      8.5015      8.8055      9.0183      9.1233      9.1133      8.9925      8.7745      8.4796    
  8.1299      7.7451      7.3407      6.9279      6.5162      6.1158      5.7395      5.4019      5.1165      4.8943    
  5.0463      4.8097      4.6505      4.5715      4.5729      4.6525      4.8062      5.0279      5.3113      5.6508    
  6.0413      6.4770      6.9482      7.4393      7.9275      8.3845      8.7802      9.0871      9.2851      9.3645    
  9.3271      9.1846      8.9548      8.6564      8.3054      7.9134      7.4895      7.0434      6.5885      6.1424    
  5.7250      5.3547      5.5831      5.1827      4.8602      4.6234      4.4757      4.4168      4.4443      4.5543    
  4.7426      5.0058      5.3418      5.7485      6.2209      6.7481      7.3112      7.8828      8.4295      8.9162    
  9.3115      9.5925      9.7483      9.7801      9.6993      9.5221      9.2640      8.9364      8.5464      8.1001    
  7.6075      7.0852      6.5566      6.0477      6.3552      5.7908      5.2970      4.8916      4.5842      4.3779    
  4.2714      4.2612      4.3433      4.5152      4.7765      5.1278      5.5689      6.0946      6.6915      7.3361    
  7.9952      8.6292      9.1980      9.6670      10.013      10.225      10.307      10.272      10.137      9.9129    
  9.6034      9.2093      8.7332      8.1850      7.5854      6.9641      7.3460      6.6325      5.9674      5.3834    
  4.9022      4.5343      4.2818      4.1413      4.1079      4.1781      4.3509      4.6284      5.0135      5.5064    
  6.1003      6.7778      7.5088      8.2526      8.9630      9.5951      10.113      10.494      10.722      10.815    
  10.803      10.708      10.533      10.261      9.8698      9.3605      8.7507      8.0665      8.5060      7.6835    
  6.8658      6.1040      5.4377      4.8916      4.4758      4.1904      4.0298      3.9881      4.0620      4.2526    
  4.5639      5.0001      5.5607      6.2351      6.9995      7.8151      8.6320      9.3969      10.062      10.578    
  10.910      11.078      11.135      11.135      11.103      11.020      10.832      10.483      9.9536      9.2788    
  9.7451      8.8826      7.9596      7.0431      6.1940      5.4576      4.8602      4.4107      4.1065      3.9399    
  3.9043      3.9974      4.2219      4.5836      5.0867      5.7280      6.4911      7.3424      8.2317      9.0989    
  9.8833      10.504      10.897      11.071      11.103      11.095      11.125      11.208      11.284      11.246    
  10.993      10.479      10.902      10.128      9.1781      8.1611      7.1562      6.2334      5.4424      4.8097    
  4.3416      4.0328      3.8741      3.8586      3.9854      4.2590      4.6860      5.2694      6.0009      6.8549    
  7.7846      8.7264      9.6084      10.321      10.752      10.881      10.791      10.631      10.561      10.673    
  10.952      11.276      11.466      11.364      11.585      11.203      10.407      9.3790      8.2787      7.2003    
  6.2212      5.3936      4.7424      4.2712      3.9720      3.8344      3.8522      4.0263      4.3628      4.8682    
  5.5421      6.3682      7.3079      8.2985      9.2610      10.070      10.555      10.636      10.367      9.9283    
  9.5593      9.4699      9.7506      10.329      10.996      11.486      11.341      11.667      11.380      10.572    
  9.4774      8.3082      7.1747      6.1591      5.3141      4.6618      4.2026      3.9263      3.8224      3.8860    
  4.1198      4.5311      5.1250      5.8955      6.8148      7.8273      8.8525      9.7690      10.356      10.447    
  10.027      9.2553      8.4280      7.8788      7.8552      8.4163      9.4030      10.497      9.8760      11.091    
  11.641      11.439      10.621      9.4710      8.2504      7.0821      6.0510      5.2080      4.5715      4.1387    
  3.8980      3.8392      3.9596      4.2639      4.7597      5.4494      6.3178      7.3221      8.3877      9.4066    
  10.151      10.359      9.9054      8.8706      7.5430      6.3451      5.6957      5.8542      6.8144      8.3016    
  7.1958      9.2539      10.811      11.545      11.397      10.557      9.3630      8.1099      6.9282      5.9026    
  5.0803      4.4756      4.0824      3.8884      3.8849      4.0717      4.4554      5.0430      5.8315      6.7941    
  7.8699      8.9637      9.8917      10.329      10.022      8.9161      7.2132      5.3444      3.8561      3.2289    
  3.6979      5.1567      3.6860      6.2674      8.7514      10.571      11.414      11.270      10.389      9.1609    
  7.8947      6.7207      5.7208      4.9367      4.3779      4.0357      3.8980      3.9585      4.2196      4.6892    
  5.3727      6.2592      7.3074      8.4371      9.5187      10.250      10.266      9.3543      7.5553      5.2080    
  2.8872      1.2434     0.78224      1.6743     0.77544E-01  2.6306      5.6735      8.4627      10.419      11.269    
  11.067      10.126      8.8755      7.6153      6.4692      5.5134      4.7828      4.2818      3.9999      3.9264    
  4.0575      4.3985      4.9582      5.7383      6.7178      7.8393      9.0034      10.008      10.454      9.9819    
  8.4405      5.9867      3.1001     0.48206     -1.1491     -1.3073     -2.7320     -.84885      2.1588      5.5129    
  8.4349      10.372      11.115      10.794      9.7790      8.5201      7.2843      6.1846      5.2890      4.6244    
  4.1905      3.9759      3.9720      4.1784      4.6027      5.2535      6.1271      7.1908      8.3709      9.5437    
  10.406      10.516      9.5448      7.4253      4.4365      1.1857     -1.5321     -2.9784     -1.3190     -.84887    
  1.0432      3.8332      6.7920      9.2316      10.699      11.065      10.504      9.3920      8.1341      6.9301    
  5.8784      5.0357      4.4210      4.0298      3.8502      3.8741      4.1024      4.5441      5.2080      6.0898    
  7.1557      8.3306      9.4915      10.341      10.463      9.5665      7.6199      4.9183      2.0515     -.24373    
 -.96111     -1.7594     -.96111      1.2025      4.1269      7.0572      9.3351      10.575      10.724      10.021    
  8.8731      7.6498      6.5082      5.5364      4.7799      4.2502      3.9399      3.8381      3.9399      4.2503    
  4.7800      5.5364      6.5082      7.6498      8.8731      10.021      10.724      10.575      9.3351      7.0572    
  4.1269      1.2024      1.0432     -.84889     -1.3190     -.24373      2.0516      4.9183      7.6199      9.5664    
  10.463      10.341      9.4915      8.3306      7.1557      6.0899      5.2080      4.5441      4.1025      3.8741    
  3.8502      4.0298      4.4210      5.0357      5.8784      6.9300      8.1340      9.3920      10.504      11.065    
  10.699      9.2316      6.7920      3.8332      4.1016      1.6069     0.77625E-01 -.67821E-01  1.1857      3.4441    
  6.0565      8.3481      9.8293      10.309      9.8997      8.9280      7.7816      6.6686      5.6898      4.9046    
  4.3357      3.9820      3.8343      3.8865      4.1413      4.6094      5.3029      6.2221      7.3400      8.5907    
  9.8675      10.933      11.381      10.880      9.3215      6.8988      7.3792      4.8977      2.8073      1.6742    
  1.7988      3.1000      5.1493      7.3360      9.0835      10.022      10.068      9.3973      8.3523      7.2429    
  6.2049      5.3211      4.6357      4.1613      3.8930      3.8224      3.9465      4.2714      4.8097      5.5723    
  6.5544      7.7218      9.0014      10.280      11.300      11.677      11.134      9.6230      10.102      8.1614    
  6.0964      4.4584      3.6978      3.9986      5.2079      6.9002      8.5418      9.6777      10.064      9.7133    
  8.8474      7.7866      6.7309      5.7790      4.9954      4.4096      4.0261      3.8383      3.8392      4.0292    
  4.4168      5.0155      5.8338      6.8620      8.0593      9.3477      10.611      11.593      11.946      11.450    
  11.781      10.680      9.1172      7.5099      6.3122      5.8542      6.2189      7.2131      8.4485      9.4940    
  10.025      9.9152      9.2537      8.2834      7.2472      6.2614      5.4042      4.7221      4.2323      3.9340    
  3.8198      3.8850      4.1325      4.5729      5.2192      6.0770      7.1314      8.3362      9.6113      10.843    
  11.794      12.164      12.293      12.066      11.253      10.089      8.9240      8.1063      7.8550      8.1771    
  8.8705      9.6113      10.081      10.081      9.5830      8.7282      7.7388      6.7514      5.8492      5.0912    
  4.5083      4.1085      3.8874      3.8383      3.9586      4.2534      4.7342      5.4129      6.2911      7.3492    
  8.5375      9.7758      10.958      11.880      11.831      12.294      12.235      11.711      10.922      10.140    
  9.6135      9.4698      9.6687      10.027      10.299      10.277      9.8682      9.1216      8.1967      7.2349    
  6.3166      5.5073      4.8487      4.3593      4.0408      3.8873      3.8930      4.0576      4.3876      4.8944    
  5.5877      6.4652      7.5033      8.6504      9.8286      10.942      10.790      11.633      12.137      12.230    
  11.963      11.490      11.008      10.678      10.561      10.595      10.636      10.518      10.131      9.4658    
  8.6154      7.7003      6.7935      5.9594      5.2467      4.6831      4.2784      4.0305      3.9332      3.9821    
  4.1784      4.5297      5.0463      5.7350      6.5898      7.5839      8.6659      9.7627      9.5784      10.506    
  11.285      11.808      12.019      11.955      11.723      11.452      11.237      11.095      10.967      10.752    
  10.359      9.7555      8.9857      8.1362      7.2670      6.4361      5.6941      5.0759      4.5991      4.2678    
  4.0779      4.0237      4.1025      4.3167      4.6739      5.1828      5.8468      6.6568      7.5843      8.5802    
  8.3961      9.2838      10.104      10.801      11.315      11.601      11.676      11.609      11.474      11.317    
  11.135      10.883      10.504      9.9670      9.2906      8.5277      7.7224      6.9241      6.1810      5.5319    
  5.0013      4.5998      4.3282      4.1819      4.1564      4.2503      4.4672      4.8139      5.2970      5.9168    
  6.6614      7.5028      7.3428      8.1227      8.8941      9.6067      10.216      10.692      11.007      11.166    
  11.200      11.146      11.021      10.815      10.502      10.062      9.5037      8.8531      8.1407      7.4066    