   2   2   0   0
  0.1364609E+02  0.3487191E-09  0.3487191E-09  0.3487191E-09  0.5000000E-15
  1.000000000000000E-004
  CAR 
 unknown system                          
     26.77948751     -6.02175673  301     10.60937087      1.00000000
     -6.022  0.0000E+00  0.0000E+00
     -5.912  0.0000E+00  0.0000E+00
     -5.803  0.0000E+00  0.0000E+00
     -5.694  0.0000E+00  0.0000E+00
     -5.584  0.0000E+00  0.0000E+00
     -5.475  0.0000E+00  0.0000E+00
     -5.366  0.0000E+00  0.0000E+00
     -5.256  0.0000E+00  0.0000E+00
     -5.147  0.8462E-17  0.9252E-18
     -5.038  0.3218E-14  0.3528E-15
     -4.928  0.6863E-12  0.7539E-13
     -4.819  0.8142E-10  0.8977E-11
     -4.710  0.5383E-08  0.5975E-09
     -4.600  0.1988E-06  0.2233E-07
     -4.491  0.4113E-05  0.4720E-06
     -4.382  0.4781E-04  0.5699E-05
     -4.272  0.3137E-03  0.4000E-04
     -4.163  0.1173E-02  0.1682E-03
     -4.054  0.2562E-02  0.4484E-03
     -3.944  0.3585E-02  0.8404E-03
     -3.835  0.4379E-02  0.1319E-02
     -3.726  0.6963E-02  0.2081E-02
     -3.616  0.1148E-01  0.3336E-02
     -3.507  0.1411E-01  0.4879E-02
     -3.398  0.1277E-01  0.6275E-02
     -3.288  0.9868E-02  0.7354E-02
     -3.179  0.7620E-02  0.8187E-02
     -3.070  0.7262E-02  0.8981E-02
     -2.960  0.1001E-01  0.1007E-01
     -2.851  0.1650E-01  0.1188E-01
     -2.742  0.2373E-01  0.1447E-01
     -2.632  0.2388E-01  0.1708E-01
     -2.523  0.1657E-01  0.1890E-01
     -2.414  0.1303E-01  0.2032E-01
     -2.304  0.1711E-01  0.2219E-01
     -2.195  0.2007E-01  0.2439E-01
     -2.086  0.1759E-01  0.2631E-01
     -1.976  0.1523E-01  0.2797E-01
     -1.867  0.1656E-01  0.2978E-01
     -1.758  0.1921E-01  0.3189E-01
     -1.648  0.2134E-01  0.3422E-01
     -1.539  0.2378E-01  0.3682E-01
     -1.430  0.2519E-01  0.3957E-01
     -1.320  0.2195E-01  0.4197E-01
     -1.211  0.1881E-01  0.4403E-01
     -1.102  0.2526E-01  0.4679E-01
     -0.992  0.3511E-01  0.5063E-01
     -0.883  0.3310E-01  0.5425E-01
     -0.774  0.2105E-01  0.5655E-01
     -0.664  0.1103E-01  0.5776E-01
     -0.555  0.7496E-02  0.5858E-01
     -0.446  0.1165E-01  0.5985E-01
     -0.336  0.2455E-01  0.6254E-01
     -0.227  0.4257E-01  0.6719E-01
     -0.118  0.5265E-01  0.7295E-01
     -0.008  0.4442E-01  0.7780E-01
      0.101  0.2950E-01  0.8103E-01
      0.210  0.2407E-01  0.8366E-01
      0.320  0.2633E-01  0.8654E-01
      0.429  0.2789E-01  0.8959E-01
      0.538  0.2630E-01  0.9247E-01
      0.648  0.2277E-01  0.9495E-01
      0.757  0.1984E-01  0.9712E-01
      0.867  0.2020E-01  0.9933E-01
      0.976  0.2396E-01  0.1020E+00
      1.085  0.2669E-01  0.1049E+00
      1.195  0.2505E-01  0.1076E+00
      1.304  0.2556E-01  0.1104E+00
      1.413  0.3872E-01  0.1146E+00
      1.523  0.5692E-01  0.1209E+00
      1.632  0.5888E-01  0.1273E+00
      1.741  0.4365E-01  0.1321E+00
      1.851  0.2957E-01  0.1353E+00
      1.960  0.2453E-01  0.1380E+00
      2.069  0.2457E-01  0.1407E+00
      2.179  0.3193E-01  0.1442E+00
      2.288  0.4768E-01  0.1494E+00
      2.397  0.5735E-01  0.1556E+00
      2.507  0.5105E-01  0.1612E+00
      2.616  0.3912E-01  0.1655E+00
      2.725  0.3202E-01  0.1690E+00
      2.835  0.2857E-01  0.1721E+00
      2.944  0.2569E-01  0.1749E+00
      3.053  0.2259E-01  0.1774E+00
      3.163  0.2033E-01  0.1796E+00
      3.272  0.2019E-01  0.1818E+00
      3.381  0.2215E-01  0.1843E+00
      3.491  0.2739E-01  0.1873E+00
      3.600  0.3389E-01  0.1910E+00
      3.709  0.3804E-01  0.1951E+00
      3.819  0.4441E-01  0.2000E+00
      3.928  0.5583E-01  0.2061E+00
      4.037  0.6312E-01  0.2130E+00
      4.147  0.5959E-01  0.2195E+00
      4.256  0.4896E-01  0.2249E+00
      4.365  0.3839E-01  0.2291E+00
      4.475  0.3397E-01  0.2328E+00
      4.584  0.3430E-01  0.2365E+00
      4.693  0.3502E-01  0.2403E+00
      4.803  0.3884E-01  0.2446E+00
      4.912  0.4605E-01  0.2496E+00
      5.021  0.4647E-01  0.2547E+00
      5.131  0.3775E-01  0.2588E+00
      5.240  0.3003E-01  0.2621E+00
      5.349  0.2700E-01  0.2651E+00
      5.459  0.2728E-01  0.2681E+00
      5.568  0.3507E-01  0.2719E+00
      5.677  0.4797E-01  0.2771E+00
      5.787  0.5386E-01  0.2830E+00
      5.896  0.5500E-01  0.2890E+00
      6.005  0.6399E-01  0.2960E+00
      6.115  0.7448E-01  0.3042E+00
      6.224  0.6917E-01  0.3117E+00
      6.333  0.4988E-01  0.3172E+00
      6.443  0.3410E-01  0.3209E+00
      6.552  0.2797E-01  0.3240E+00
      6.661  0.2745E-01  0.3270E+00
      6.771  0.3163E-01  0.3304E+00
      6.880  0.3678E-01  0.3345E+00
      6.989  0.3987E-01  0.3388E+00
      7.099  0.4897E-01  0.3442E+00
      7.208  0.6747E-01  0.3516E+00
      7.317  0.8279E-01  0.3606E+00
      7.427  0.8207E-01  0.3696E+00
      7.536  0.6471E-01  0.3767E+00
      7.645  0.4337E-01  0.3814E+00
      7.755  0.3281E-01  0.3850E+00
      7.864  0.3468E-01  0.3888E+00
      7.973  0.4347E-01  0.3935E+00
      8.083  0.5561E-01  0.3996E+00
      8.192  0.6567E-01  0.4068E+00
      8.301  0.6596E-01  0.4140E+00
      8.411  0.5566E-01  0.4201E+00
      8.520  0.4663E-01  0.4252E+00
      8.629  0.5258E-01  0.4309E+00
      8.739  0.7595E-01  0.4392E+00
      8.848  0.9980E-01  0.4501E+00
      8.957  0.9979E-01  0.4611E+00
      9.067  0.7802E-01  0.4696E+00
      9.176  0.5454E-01  0.4756E+00
      9.285  0.3931E-01  0.4799E+00
      9.395  0.3496E-01  0.4837E+00
      9.504  0.3867E-01  0.4879E+00
      9.614  0.4345E-01  0.4927E+00
      9.723  0.4385E-01  0.4974E+00
      9.832  0.3821E-01  0.5016E+00
      9.942  0.3305E-01  0.5052E+00
     10.051  0.3364E-01  0.5089E+00
     10.160  0.3487E-01  0.5127E+00
     10.270  0.3537E-01  0.5166E+00
     10.379  0.4130E-01  0.5211E+00
     10.488  0.5102E-01  0.5267E+00
     10.598  0.5498E-01  0.5327E+00
     10.707  0.5078E-01  0.5383E+00
     10.816  0.4565E-01  0.5432E+00
     10.926  0.4256E-01  0.5479E+00
     11.035  0.4181E-01  0.5525E+00
     11.144  0.4408E-01  0.5573E+00
     11.254  0.4194E-01  0.5619E+00
     11.363  0.3127E-01  0.5653E+00
     11.472  0.2383E-01  0.5679E+00
     11.582  0.2987E-01  0.5712E+00
     11.691  0.4194E-01  0.5757E+00
     11.800  0.5005E-01  0.5812E+00
     11.910  0.5555E-01  0.5873E+00
     12.019  0.5899E-01  0.5937E+00
     12.128  0.5759E-01  0.6000E+00
     12.238  0.5396E-01  0.6059E+00
     12.347  0.5032E-01  0.6114E+00
     12.456  0.4658E-01  0.6165E+00
     12.566  0.4496E-01  0.6215E+00
     12.675  0.4935E-01  0.6268E+00
     12.784  0.5817E-01  0.6332E+00
     12.894  0.6494E-01  0.6403E+00
     13.003  0.6785E-01  0.6477E+00
     13.112  0.6636E-01  0.6550E+00
     13.222  0.6010E-01  0.6616E+00
     13.331  0.5735E-01  0.6678E+00
     13.440  0.6661E-01  0.6751E+00
     13.550  0.7988E-01  0.6838E+00
     13.659  0.8277E-01  0.6929E+00
     13.768  0.7352E-01  0.7009E+00
     13.878  0.6028E-01  0.7075E+00
     13.987  0.5424E-01  0.7134E+00
     14.096  0.5763E-01  0.7198E+00
     14.206  0.6058E-01  0.7264E+00
     14.315  0.5589E-01  0.7325E+00
     14.424  0.4413E-01  0.7373E+00
     14.534  0.3121E-01  0.7407E+00
     14.643  0.2447E-01  0.7434E+00
     14.752  0.2681E-01  0.7463E+00
     14.862  0.3856E-01  0.7505E+00
     14.971  0.5876E-01  0.7570E+00
     15.080  0.7980E-01  0.7657E+00
     15.190  0.8800E-01  0.7753E+00
     15.299  0.7837E-01  0.7839E+00
     15.408  0.6299E-01  0.7908E+00
     15.518  0.5230E-01  0.7965E+00
     15.627  0.4536E-01  0.8015E+00
     15.736  0.4572E-01  0.8065E+00
     15.846  0.5690E-01  0.8127E+00
     15.955  0.6847E-01  0.8202E+00
     16.064  0.7500E-01  0.8284E+00
     16.174  0.8511E-01  0.8377E+00
     16.283  0.9647E-01  0.8482E+00
     16.392  0.9271E-01  0.8584E+00
     16.502  0.7427E-01  0.8665E+00
     16.611  0.6124E-01  0.8732E+00
     16.720  0.6573E-01  0.8804E+00
     16.830  0.7936E-01  0.8890E+00
     16.939  0.8615E-01  0.8984E+00
     17.048  0.7669E-01  0.9068E+00
     17.158  0.5687E-01  0.9131E+00
     17.267  0.4156E-01  0.9176E+00
     17.376  0.3608E-01  0.9215E+00
     17.486  0.3409E-01  0.9253E+00
     17.595  0.2951E-01  0.9285E+00
     17.704  0.2439E-01  0.9312E+00
     17.814  0.2505E-01  0.9339E+00
     17.923  0.3336E-01  0.9375E+00
     18.032  0.4731E-01  0.9427E+00
     18.142  0.6422E-01  0.9497E+00
     18.251  0.7703E-01  0.9582E+00
     18.361  0.7810E-01  0.9667E+00
     18.470  0.6827E-01  0.9742E+00
     18.579  0.5553E-01  0.9802E+00
     18.689  0.4585E-01  0.9853E+00
     18.798  0.4163E-01  0.9898E+00
     18.907  0.4227E-01  0.9944E+00
     19.017  0.4349E-01  0.9992E+00
     19.126  0.3937E-01  0.1003E+01
     19.235  0.2935E-01  0.1007E+01
     19.345  0.2247E-01  0.1009E+01
     19.454  0.2679E-01  0.1012E+01
     19.563  0.3732E-01  0.1016E+01
     19.673  0.4097E-01  0.1021E+01
     19.782  0.3373E-01  0.1024E+01
     19.891  0.2346E-01  0.1027E+01
     20.001  0.1833E-01  0.1029E+01
     20.110  0.2015E-01  0.1031E+01
     20.219  0.2339E-01  0.1034E+01
     20.329  0.2187E-01  0.1036E+01
     20.438  0.1639E-01  0.1038E+01
     20.547  0.1085E-01  0.1039E+01
     20.657  0.7285E-02  0.1040E+01
     20.766  0.7069E-02  0.1041E+01
     20.875  0.1341E-01  0.1042E+01
     20.985  0.2731E-01  0.1045E+01
     21.094  0.3764E-01  0.1049E+01
     21.203  0.3255E-01  0.1053E+01
     21.313  0.1958E-01  0.1055E+01
     21.422  0.1204E-01  0.1056E+01
     21.531  0.1055E-01  0.1057E+01
     21.641  0.9311E-02  0.1058E+01
     21.750  0.6028E-02  0.1059E+01
     21.859  0.2532E-02  0.1059E+01
     21.969  0.6699E-03  0.1059E+01
     22.078  0.3279E-03  0.1059E+01
     22.187  0.1193E-02  0.1060E+01
     22.297  0.3434E-02  0.1060E+01
     22.406  0.5819E-02  0.1061E+01
     22.515  0.6469E-02  0.1061E+01
     22.625  0.6358E-02  0.1062E+01
     22.734  0.6429E-02  0.1063E+01
     22.843  0.5054E-02  0.1063E+01
     22.953  0.2738E-02  0.1064E+01
     23.062  0.1888E-02  0.1064E+01
     23.171  0.2572E-02  0.1064E+01
     23.281  0.2815E-02  0.1064E+01
     23.390  0.1806E-02  0.1064E+01
     23.499  0.6601E-03  0.1065E+01
     23.609  0.1694E-03  0.1065E+01
     23.718  0.2591E-03  0.1065E+01
     23.827  0.9799E-03  0.1065E+01
     23.937  0.2226E-02  0.1065E+01
     24.046  0.2864E-02  0.1065E+01
     24.155  0.2088E-02  0.1066E+01
     24.265  0.8624E-03  0.1066E+01
     24.374  0.2192E-03  0.1066E+01
     24.483  0.1795E-03  0.1066E+01
     24.593  0.7182E-03  0.1066E+01
     24.702  0.1893E-02  0.1066E+01
     24.811  0.2832E-02  0.1066E+01
     24.921  0.2399E-02  0.1067E+01
     25.030  0.1150E-02  0.1067E+01
     25.139  0.3119E-03  0.1067E+01
     25.249  0.4772E-04  0.1067E+01
     25.358  0.4110E-05  0.1067E+01
     25.467  0.1988E-06  0.1067E+01
     25.577  0.5383E-08  0.1067E+01
     25.686  0.8142E-10  0.1067E+01
     25.795  0.6863E-12  0.1067E+01
     25.905  0.3218E-14  0.1067E+01
     26.014  0.8462E-17  0.1067E+01
     26.123  0.0000E+00  0.1067E+01
     26.233  0.0000E+00  0.1067E+01
     26.342  0.0000E+00  0.1067E+01
     26.451  0.0000E+00  0.1067E+01
     26.561  0.0000E+00  0.1067E+01
     26.670  0.0000E+00  0.1067E+01
     26.779  0.0000E+00  0.1067E+01
