unknown system                          
           1
    -2.286680    2.286680    1.304871
     2.286680   -2.286680    1.304871
     2.286680    2.286680   -1.304871
   Si
   2
Direct configuration=     1
   0.00000000  0.00000000  0.00000000
   0.25000000  0.75000000  0.50000000
