unknown system                          
   1.00000000000000     
    -2.450000    2.450000    1.274000
     2.450000   -2.450000    1.274000
     2.450000    2.450000   -1.274000
   Si
     2
Direct
  0.250000  0.750000  0.500000
  0.000000  0.000000  0.000000
 
   24   24   24
 -.55611124274E+01 -.35394348252E+01 0.14936793290E+01 0.70949515141E+01 0.10892571517E+02
 0.11864844826E+02 0.10612143574E+02 0.85821994070E+01 0.67029085131E+01 0.52481541869E+01
 0.42750891740E+01 0.37348665680E+01 0.35636966089E+01 0.37349310082E+01 0.42750825223E+01
 0.52480997400E+01 0.67029400044E+01 0.85822556295E+01 0.10612073451E+02 0.11864753016E+02
 0.10892663264E+02 0.70951067141E+01 0.14936161321E+01 -.35396352187E+01 -.35396352187E+01
 -.45779901081E+01 -.17879359071E+01 0.33952476366E+01 0.84811822908E+01 0.11416332680E+02
 0.11631732931E+02 0.10027121151E+02 0.80052389194E+01 0.62369600675E+01 0.49208499758E+01
 0.40758865491E+01 0.36425900944E+01 0.35637024303E+01 0.38257242854E+01 0.44666964092E+01
 0.55526295986E+01 0.71166436198E+01 0.90630170863E+01 0.11040234460E+02 0.11948811142E+02
 0.10450581133E+02 0.62807183527E+01 0.79932185682E+00 0.14936161321E+01 -.17881105706E+01
 -.18654215113E+01 0.12890338565E+01 0.60182966938E+01 0.10036894248E+02 0.11789641965E+02
 0.11188188445E+02 0.93291250364E+01 0.73766721604E+01 0.57552463817E+01 0.45954015646E+01
 0.38833041672E+01 0.35551185573E+01 0.35636529649E+01 0.39085017320E+01 0.46359661933E+01
 0.58092356548E+01 0.74427781053E+01 0.94083205340E+01 0.11296425932E+02 0.11963778591E+02
 0.10279111271E+02 0.62807183527E+01 0.70951067141E+01 0.33951997217E+01 0.12889057717E+01
 0.19389346947E+01 0.49711135468E+01 0.87267463819E+01 0.11335639000E+02 0.11827341250E+02
 0.10531486272E+02 0.85756655382E+01 0.67421942161E+01 0.52919694027E+01 0.42936505302E+01
 0.37096618738E+01 0.34780467018E+01 0.35635790119E+01 0.39770763719E+01 0.47688438156E+01
 0.59950517875E+01 0.76517221384E+01 0.95888528577E+01 0.11381139601E+02 0.11963778591E+02
 0.10450581133E+02 0.10892663264E+02 0.84812990872E+01 0.60182706341E+01 0.49710443399E+01
 0.59901440588E+01 0.84617004306E+01 0.10930139171E+02 0.12065706222E+02 0.11462897079E+02
 0.97353574081E+01 0.78194491776E+01 0.61448082303E+01 0.48763535252E+01 0.40333502973E+01
 0.35649634708E+01 0.34160753566E+01 0.35634909984E+01 0.40260767530E+01 0.48537072241E+01
 0.60926888147E+01 0.77237033068E+01 0.95888528577E+01 0.11296425932E+02 0.11948811142E+02
 0.11864753016E+02 0.11416384390E+02 0.10036962119E+02 0.87267442241E+01 0.84616919052E+01
 0.94838480362E+01 0.11117439828E+02 0.12253634820E+02 0.12123229164E+02 0.10774326435E+02
 0.89136364817E+01 0.71136069945E+01 0.56220323238E+01 0.45315393444E+01 0.38278471387E+01
 0.34566440239E+01 0.33727434288E+01 0.35634102546E+01 0.40516201054E+01 0.48829016025E+01
 0.60926888147E+01 0.76517221384E+01 0.94083205340E+01 0.11040234460E+02 0.10612073451E+02
 0.11631670736E+02 0.11789649658E+02 0.11335655468E+02 0.10930158013E+02 0.11117483844E+02
 0.11875173518E+02 0.12613346958E+02 0.12626160844E+02 0.11628402107E+02 0.99530914547E+01
 0.81448959263E+01 0.65078226050E+01 0.52042127841E+01 0.42743546852E+01 0.36862486882E+01
 0.33897315320E+01 0.33504833200E+01 0.35633902950E+01 0.40516201054E+01 0.48537072241E+01
 0.59950517875E+01 0.74427781053E+01 0.90630170863E+01 0.85822556295E+01 0.10027105003E+02
 0.11188158751E+02 0.11827309441E+02 0.12065676658E+02 0.12253667920E+02 0.12613428217E+02
 0.12999023493E+02 0.12993331438E+02 0.12262684056E+02 0.10864300327E+02 0.91749255703E+01
 0.74980091635E+01 0.60439618235E+01 0.49136710718E+01 0.41159088277E+01 0.36141558858E+01
 0.33671277873E+01 0.33504833200E+01 0.35634102546E+01 0.40260767530E+01 0.47688438156E+01
 0.58092356548E+01 0.71166436198E+01 0.67029400044E+01 0.80052834720E+01 0.93291572057E+01
 0.10531488253E+02 0.11462837742E+02 0.12123164903E+02 0.12626199332E+02 0.12993431671E+02
 0.13060431909E+02 0.12600396978E+02 0.11557069158E+02 0.10123190520E+02 0.85395087641E+01
 0.70317078097E+01 0.57530856403E+01 0.47648942833E+01 0.40624423161E+01 0.36141558858E+01
 0.33897315320E+01 0.33727434288E+01 0.35634909984E+01 0.39770763719E+01 0.46359661933E+01
 0.55526295986E+01 0.52480997400E+01 0.62369408503E+01 0.73766996637E+01 0.85757324403E+01
 0.97353876607E+01 0.10774255470E+02 0.11628316956E+02 0.12262719315E+02 0.12600499753E+02
 0.12512592261E+02 0.11922546393E+02 0.10885163887E+02 0.95514664243E+01 0.81248427623E+01
 0.67878405908E+01 0.56540477832E+01 0.47648942833E+01 0.41159088277E+01 0.36862486882E+01
 0.34566440239E+01 0.34160753566E+01 0.35635790119E+01 0.39085017320E+01 0.44666964092E+01
 0.42750825223E+01 0.49207968586E+01 0.57551877477E+01 0.67421997309E+01 0.78195328871E+01
 0.89136897733E+01 0.99530244264E+01 0.10864207317E+02 0.11557095219E+02 0.11922640911E+02
 0.11862978419E+02 0.11342147990E+02 0.10420232718E+02 0.92413210604E+01 0.79809427282E+01
 0.67878405908E+01 0.57530856403E+01 0.49136710718E+01 0.42743546852E+01 0.38278471387E+01
 0.35649634708E+01 0.34780467018E+01 0.35636529649E+01 0.38257242854E+01 0.37349310082E+01
 0.40759203520E+01 0.45953624255E+01 0.52918870636E+01 0.61447878500E+01 0.71136900473E+01
 0.81449667607E+01 0.91748738620E+01 0.10123098865E+02 0.10885178703E+02 0.11342230946E+02
 0.11396327867E+02 0.11015133861E+02 0.10254636096E+02 0.92413210604E+01 0.81248427623E+01
 0.70317078097E+01 0.60439618235E+01 0.52042127841E+01 0.45315393444E+01 0.40333502973E+01
 0.37096618738E+01 0.35551185573E+01 0.35637024303E+01 0.35636966089E+01 0.36426517132E+01
 0.38833693676E+01 0.42936374419E+01 0.48762634021E+01 0.56219849512E+01 0.65078927300E+01
 0.74980923381E+01 0.85394763542E+01 0.95513799084E+01 0.10420238583E+02 0.11015208979E+02
 0.11227678904E+02 0.11015133861E+02 0.10420232718E+02 0.95514664243E+01 0.85395087641E+01
 0.74980091635E+01 0.65078226050E+01 0.56220323238E+01 0.48763535252E+01 0.42936505302E+01
 0.38833041672E+01 0.36425900944E+01 0.37348665680E+01 0.35636684718E+01 0.35551604728E+01
 0.37097486800E+01 0.40333719253E+01 0.45314540753E+01 0.52041406853E+01 0.60440140489E+01
 0.70317985595E+01 0.81248259281E+01 0.92412386642E+01 0.10254638610E+02 0.11015208979E+02
 0.11396327867E+02 0.11342147990E+02 0.10885163887E+02 0.10123190520E+02 0.91749255703E+01
 0.81448959263E+01 0.71136069945E+01 0.61448082303E+01 0.52919694027E+01 0.45954015646E+01
 0.40758865491E+01 0.42750891740E+01 0.38256739188E+01 0.35635871848E+01 0.34780572358E+01
 0.35650637518E+01 0.38279054979E+01 0.42742802340E+01 0.49135798013E+01 0.57531230858E+01
 0.67879350416E+01 0.79809318933E+01 0.92412386642E+01 0.10420238583E+02 0.11342230946E+02
 0.11862978419E+02 0.11922546393E+02 0.11557069158E+02 0.10864300327E+02 0.99530914547E+01
 0.89136364817E+01 0.78194491776E+01 0.67421942161E+01 0.57552463817E+01 0.49208499758E+01
 0.52481541869E+01 0.44667494113E+01 0.39084784878E+01 0.35634861127E+01 0.34160508065E+01
 0.34567514341E+01 0.36863375095E+01 0.41158444048E+01 0.47647927102E+01 0.56540796636E+01
 0.67879350416E+01 0.81248259281E+01 0.95513799084E+01 0.10885178703E+02 0.11922640911E+02
 0.12512592261E+02 0.12600396978E+02 0.12262684056E+02 0.11628402107E+02 0.10774326435E+02
 0.97353574081E+01 0.85756655382E+01 0.73766721604E+01 0.62369600675E+01 0.67029085131E+01
 0.55526759447E+01 0.46360664730E+01 0.39770855988E+01 0.35633771221E+01 0.33726887412E+01
 0.33898421225E+01 0.36142621823E+01 0.40623820106E+01 0.47647927102E+01 0.57531230858E+01
 0.70317985595E+01 0.85394763542E+01 0.10123098865E+02 0.11557095219E+02 0.12600499753E+02
 0.13060431909E+02 0.12993331438E+02 0.12626160844E+02 0.12123229164E+02 0.11462897079E+02
 0.10531486272E+02 0.93291250364E+01 0.80052389194E+01 0.85821994070E+01 0.71165583486E+01
 0.58092692929E+01 0.47689850287E+01 0.40261143475E+01 0.35632831555E+01 0.33504115319E+01
 0.33672393788E+01 0.36142621823E+01 0.41158444048E+01 0.49135798013E+01 0.60440140489E+01
 0.74980923381E+01 0.91748738620E+01 0.10864207317E+02 0.12262719315E+02 0.12993431671E+02
 0.12999023493E+02 0.12613346958E+02 0.12253634820E+02 0.12065706222E+02 0.11827341250E+02
 0.11188188445E+02 0.10027121151E+02 0.10612143574E+02 0.90629538332E+01 0.74426450201E+01
 0.59950730736E+01 0.48538763646E+01 0.40516743775E+01 0.35632588206E+01 0.33504115319E+01
 0.33898421225E+01 0.36863375095E+01 0.42742802340E+01 0.52041406853E+01 0.65078927300E+01
 0.81449667607E+01 0.99530244264E+01 0.11628316956E+02 0.12626199332E+02 0.12613428217E+02
 0.11875173518E+02 0.11117439828E+02 0.10930139171E+02 0.11335639000E+02 0.11789641965E+02
 0.11631732931E+02 0.11864844826E+02 0.11040353587E+02 0.94082534360E+01 0.76515561615E+01
 0.60927028580E+01 0.48830808022E+01 0.40516743775E+01 0.35632831555E+01 0.33726887412E+01
 0.34567514341E+01 0.38279054979E+01 0.45314540753E+01 0.56219849512E+01 0.71136900473E+01
 0.89136897733E+01 0.10774255470E+02 0.12123164903E+02 0.12253667920E+02 0.11117483844E+02
 0.94838480362E+01 0.84617004306E+01 0.87267463819E+01 0.10036894248E+02 0.11416332680E+02
 0.10892571517E+02 0.11948925489E+02 0.11296579259E+02 0.95887843069E+01 0.77235257376E+01
 0.60927028580E+01 0.48538763646E+01 0.40261143475E+01 0.35633771221E+01 0.34160508065E+01
 0.35650637518E+01 0.40333719253E+01 0.48762634021E+01 0.61447878500E+01 0.78195328871E+01
 0.97353876607E+01 0.11462837742E+02 0.12065676658E+02 0.10930158013E+02 0.84616919052E+01
 0.59901440588E+01 0.49711135468E+01 0.60182966938E+01 0.84811822908E+01 0.70949515141E+01
 0.10450461527E+02 0.11963905280E+02 0.11381305291E+02 0.95887843069E+01 0.76515561615E+01
 0.59950730736E+01 0.47689850287E+01 0.39770855988E+01 0.35634861127E+01 0.34780572358E+01
 0.37097486800E+01 0.42936374419E+01 0.52918870636E+01 0.67421997309E+01 0.85757324403E+01
 0.10531488253E+02 0.11827309441E+02 0.11335655468E+02 0.87267442241E+01 0.49710443399E+01
 0.19389346947E+01 0.12890338565E+01 0.33952476366E+01 0.14936793290E+01 0.62805421339E+01
 0.10278981766E+02 0.11963905280E+02 0.11296579259E+02 0.94082534360E+01 0.74426450201E+01
 0.58092692929E+01 0.46360664730E+01 0.39084784878E+01 0.35635871848E+01 0.35551604728E+01
 0.38833693676E+01 0.45953624255E+01 0.57551877477E+01 0.73766996637E+01 0.93291572057E+01
 0.11188158751E+02 0.11789649658E+02 0.10036962119E+02 0.60182706341E+01 0.12889057717E+01
 -.18654215113E+01 -.17879359071E+01 -.35394348252E+01 0.79939057187E+00 0.62805421339E+01
 0.10450461527E+02 0.11948925489E+02 0.11040353587E+02 0.90629538332E+01 0.71165583486E+01
 0.55526759447E+01 0.44667494113E+01 0.38256739188E+01 0.35636684718E+01 0.36426517132E+01
 0.40759203520E+01 0.49207968586E+01 0.62369408503E+01 0.80052834720E+01 0.10027105003E+02
 0.11631670736E+02 0.11416384390E+02 0.84812990872E+01 0.33951997217E+01 -.17881105706E+01
 -.45779901081E+01 -.35392452588E+01 -.21022359898E+01 0.22218458336E+01 0.72720778630E+01
 0.10800659806E+02 0.11730436439E+02 0.10519912440E+02 0.85114133892E+01 0.66277328964E+01
 0.51501167828E+01 0.41443667714E+01 0.35661830189E+01 0.33504898636E+01 0.34650043135E+01
 0.39289434561E+01 0.48019350976E+01 0.61394354723E+01 0.79110807137E+01 0.99044713940E+01
 0.11409417543E+02 0.11069999473E+02 0.81352278605E+01 0.33101546502E+01 -.13506886158E+01
 -.21024526539E+01 -.35392665154E+01 -.13504953508E+01 0.33102556557E+01 0.81351202549E+01
 0.11069892970E+02 0.11409450347E+02 0.99045328320E+01 0.79110763375E+01 0.61394228844E+01
 0.48019474466E+01 0.39289327158E+01 0.34649831287E+01 0.33505116118E+01 0.35662022005E+01
 0.41443243762E+01 0.51500931265E+01 0.66277986895E+01 0.85114444266E+01 0.10519803197E+02
 0.11730354272E+02 0.10800786209E+02 0.72722425073E+01 0.22217697986E+01 0.23642242230E+01
 -.11952756615E+01 -.17877994351E+01 0.86350516921E+00 0.53229574271E+01 0.93674429780E+01
 0.11332898953E+02 0.10952070400E+02 0.92002470695E+01 0.72754470833E+01 0.56495195127E+01
 0.44708853633E+01 0.37374182214E+01 0.33881449046E+01 0.33727401821E+01 0.36855648435E+01
 0.43695170124E+01 0.54907306330E+01 0.70780960844E+01 0.90318398278E+01 0.11007636175E+02
 0.11968957836E+02 0.10711213509E+02 0.70716431869E+01 0.76268149733E+01 0.37174811021E+01
 0.11523383166E+01 0.12890906459E+01 0.39905244990E+01 0.77278234687E+01 0.10580226075E+02
 0.11398457438E+02 0.10334683246E+02 0.84598275557E+01 0.66473029023E+01 0.51906069602E+01
 0.41777301912E+01 0.35811858836E+01 0.33402008464E+01 0.34160142152E+01 0.38155230197E+01
 0.45884654672E+01 0.57971615936E+01 0.74530756726E+01 0.94294496039E+01 0.11345188023E+02
 0.12169514179E+02 0.10903867311E+02 0.11352988837E+02 0.87960332692E+01 0.59396097316E+01
 0.43744629913E+01 0.49711093380E+01 0.72999497297E+01 0.99378958154E+01 0.11422965319E+02
 0.11149520242E+02 0.95933415022E+01 0.77287025249E+01 0.60650622686E+01 0.47895124053E+01
 0.39386140872E+01 0.34686329916E+01 0.33239317979E+01 0.34779325184E+01 0.39474224522E+01
 0.47844431875E+01 0.60434196376E+01 0.77189755789E+01 0.96680932321E+01 0.11513916422E+02
 0.12334391137E+02 0.12415011983E+02 0.11910216794E+02 0.10248962198E+02 0.84758073727E+01
 0.77323909273E+01 0.84616301465E+01 0.10099967683E+02 0.11491722125E+02 0.11698619117E+02
 0.10592677493E+02 0.88202598832E+01 0.70503695263E+01 0.55615680310E+01 0.44668971785E+01
 0.37649708490E+01 0.34050967986E+01 0.33402340637E+01 0.35549520000E+01 0.40721574558E+01
 0.49416363651E+01 0.62072966416E+01 0.78501166814E+01 0.97234653066E+01 0.11493497233E+02
 0.11265892199E+02 0.12330764263E+02 0.12359634375E+02 0.11578173895E+02 0.10732878980E+02
 0.10535485025E+02 0.11117327136E+02 0.11931902759E+02 0.12181096616E+02 0.11418635614E+02
 0.98582322442E+01 0.80910652786E+01 0.64666905197E+01 0.51635660566E+01 0.42374747748E+01
 0.36639273642E+01 0.33931456060E+01 0.33882181785E+01 0.36424356543E+01 0.41806960471E+01
 0.50468426358E+01 0.62734980163E+01 0.78329971534E+01 0.95872361610E+01 0.92690249808E+01
 0.10828667015E+02 0.12008061213E+02 0.12500413890E+02 0.12434744267E+02 0.12258352872E+02
 0.12333568941E+02 0.12613230544E+02 0.12675122027E+02 0.12085538726E+02 0.10781632736E+02
 0.91252136067E+01 0.74643344908E+01 0.60152702308E+01 0.48915041773E+01 0.41108410095E+01
 0.36390699871E+01 0.34328209662E+01 0.34650981416E+01 0.37347558135E+01 0.42649174068E+01
 0.50911611913E+01 0.62358644775E+01 0.76685041073E+01 0.73720574200E+01 0.87956834396E+01
 0.10210130945E+02 0.11422219357E+02 0.12225126108E+02 0.12639370712E+02 0.12863134579E+02
 0.13018301070E+02 0.12993215190E+02 0.12535031637E+02 0.11509705013E+02 0.10076558079E+02
 0.84984889892E+01 0.69958401313E+01 0.57268996776E+01 0.47597281689E+01 0.40922225931E+01
 0.36908721230E+01 0.35217838555E+01 0.35663466218E+01 0.38256676655E+01 0.43183152150E+01
 0.50709957474E+01 0.60982906730E+01 0.58741513486E+01 0.69712171034E+01 0.82077648904E+01
 0.94673257962E+01 0.10623521828E+02 0.11563223208E+02 0.12229913671E+02 0.12649307630E+02
 0.12807450137E+02 0.12600326306E+02 0.11930001219E+02 0.10842525777E+02 0.94880272749E+01
 0.80578324518E+01 0.67312584336E+01 0.56234568224E+01 0.47764377450E+01 0.41828894501E+01
 0.38170524915E+01 0.36554848193E+01 0.36857761060E+01 0.39086048905E+01 0.43366468940E+01
 0.49885897515E+01 0.48515647572E+01 0.55841123779E+01 0.65016326811E+01 0.75544189149E+01
 0.86606673626E+01 0.97273497425E+01 0.10673034274E+02 0.11432071707E+02 0.11941603732E+02
 0.12129036597E+02 0.11922505803E+02 0.11300111312E+02 0.10320355419E+02 0.91189965371E+01
 0.78642283185E+01 0.67007162512E+01 0.57164403054E+01 0.49435937794E+01 0.43802056375E+01
 0.40124135042E+01 0.38270010925E+01 0.38157647653E+01 0.39773349904E+01 0.43184699687E+01
 0.42651956466E+01 0.46718403499E+01 0.52532685597E+01 0.60022625041E+01 0.68873850399E+01
 0.78538308498E+01 0.88343565352E+01 0.97593899262E+01 0.10556430885E+02 0.11142821572E+02
 0.11428746936E+02 0.11342149300E+02 0.10865450224E+02 0.10057128465E+02 0.90384302771E+01
 0.79515202039E+01 0.69157483379E+01 0.60058852960E+01 0.52561793858E+01 0.46769111157E+01
 0.42683873553E+01 0.40270719524E+01 0.39477078545E+01 0.40264755015E+01 0.40520682243E+01
 0.41810519235E+01 0.44641214213E+01 0.49078437703E+01 0.55107502861E+01 0.62555829051E+01
 0.71087058228E+01 0.80243367752E+01 0.89458958561E+01 0.98007385689E+01 0.10495837123E+02
 0.10928256576E+02 0.11015161732E+02 0.10729147548E+02 0.10114678339E+02 0.92725238746E+01
 0.83223031304E+01 0.73672623195E+01 0.64789109995E+01 0.57010205174E+01 0.50602505714E+01
 0.45725194110E+01 0.42440250992E+01 0.40724244156E+01 0.41809320629E+01 0.40520524884E+01
 0.40725263750E+01 0.42441189979E+01 0.45724887779E+01 0.50601358146E+01 0.57009734225E+01
 0.64789867223E+01 0.73673379340E+01 0.83222657124E+01 0.92724467598E+01 0.10114694409E+02
 0.10729223299E+02 0.11015157142E+02 0.10928172799E+02 0.10495821683E+02 0.98008308643E+01
 0.89459486009E+01 0.80242535775E+01 0.71086029123E+01 0.62556147782E+01 0.55108812115E+01
 0.49079043002E+01 0.44640392556E+01 0.46718189177E+01 0.42650847927E+01 0.40263980745E+01
 0.39477537906E+01 0.40271873136E+01 0.42684218700E+01 0.46768153736E+01 0.52560889878E+01
 0.60059271968E+01 0.69158441261E+01 0.79515144063E+01 0.90383458003E+01 0.10057117942E+02
 0.10865526717E+02 0.11342167135E+02 0.11428664414E+02 0.11142779990E+02 0.10556510633E+02
 0.97594679708E+01 0.88343048031E+01 0.78537183368E+01 0.68873687594E+01 0.60023642828E+01
 0.52533622472E+01 0.55842205462E+01 0.48515828045E+01 0.43183755639E+01 0.39772286406E+01
 0.38157758236E+01 0.38271191659E+01 0.40124742371E+01 0.43801209219E+01 0.49434983353E+01
 0.57164829085E+01 0.67008137895E+01 0.78642094589E+01 0.91189001082E+01 0.10320358930E+02
 0.11300211069E+02 0.11922518442E+02 0.12128923312E+02 0.11941545878E+02 0.11432167761E+02
 0.10673139044E+02 0.97273081996E+01 0.86605405012E+01 0.75543725480E+01 0.65017135136E+01
 0.69712226459E+01 0.58742387970E+01 0.49886753229E+01 0.43366137265E+01 0.39084728627E+01
 0.36857233047E+01 0.36555922418E+01 0.38171560282E+01 0.41828331970E+01 0.47763303133E+01
 0.56234799445E+01 0.67313547875E+01 0.80578225341E+01 0.94879352893E+01 0.10842525398E+02
 0.11930093878E+02 0.12600339766E+02 0.12807346300E+02 0.12649245903E+02 0.12229982767E+02
 0.11563316052E+02 0.10623518465E+02 0.94672431627E+01 0.82076934079E+01 0.87955788715E+01
 0.73720021440E+01 0.60983741978E+01 0.50711329855E+01 0.43183106552E+01 0.38255147565E+01
 0.35662762517E+01 0.35219042284E+01 0.36909833754E+01 0.40921523051E+01 0.47596195383E+01
 0.57269467225E+01 0.69959469979E+01 0.84984570015E+01 0.10076444964E+02 0.11509711665E+02
 0.12535143592E+02 0.12993237797E+02 0.13018191677E+02 0.12863050910E+02 0.12639411787E+02
 0.12225221637E+02 0.11422262818E+02 0.10210083131E+02 0.10828693368E+02 0.92689288618E+01
 0.76683837247E+01 0.62359042675E+01 0.50913250411E+01 0.42649610894E+01 0.37346193584E+01
 0.34650143849E+01 0.34329213099E+01 0.36391710028E+01 0.41107830070E+01 0.48914212053E+01
 0.60153209491E+01 0.74644153638E+01 0.91251686374E+01 0.10781540449E+02 0.12085556881E+02
 0.12675209785E+02 0.12613241050E+02 0.12333492349E+02 0.12258288648E+02 0.12434739595E+02
 0.12500460451E+02 0.12008136946E+02 0.12330895526E+02 0.11265984621E+02 0.95871260217E+01
 0.78328211155E+01 0.62735263560E+01 0.50470359770E+01 0.41807533369E+01 0.36422931197E+01
 0.33881405935E+01 0.33932577731E+01 0.36640212436E+01 0.42374032082E+01 0.51634859993E+01
 0.64667506316E+01 0.80911480475E+01 0.98581904574E+01 0.11418544023E+02 0.12181092734E+02
 0.11931967079E+02 0.11117363086E+02 0.10535462607E+02 0.10732810809E+02 0.11578096303E+02
 0.12359642841E+02 0.11910172588E+02 0.12415149240E+02 0.11493633643E+02 0.97233809281E+01
 0.78499358574E+01 0.62073040591E+01 0.49418043410E+01 0.40722101173E+01 0.35548442632E+01
 0.33401925266E+01 0.34051923807E+01 0.37650200907E+01 0.44668250152E+01 0.55615280388E+01
 0.70504383430E+01 0.88203103785E+01 0.10592628000E+02 0.11698556090E+02 0.11491718266E+02
 0.10099992182E+02 0.84616606574E+01 0.77324212449E+01 0.84757703269E+01 0.10248843210E+02
 0.87958524908E+01 0.11352887663E+02 0.12334544929E+02 0.11514097655E+02 0.96680228794E+01
 0.77187840937E+01 0.60434160020E+01 0.47846018523E+01 0.39474737191E+01 0.34778396579E+01
 0.33239005316E+01 0.34687146698E+01 0.39386519901E+01 0.47894563682E+01 0.60650310851E+01
 0.77287427688E+01 0.95933750812E+01 0.11149511889E+02 0.11422941023E+02 0.99378503623E+01
 0.72999051689E+01 0.49711565427E+01 0.43745800442E+01 0.59396035898E+01 0.37175016480E+01
 0.76266257663E+01 0.10903747578E+02 0.12169648664E+02 0.11345353272E+02 0.94293941292E+01
 0.74529290753E+01 0.57971725781E+01 0.45885795559E+01 0.38155359780E+01 0.34159470998E+01
 0.33402106364E+01 0.35812553525E+01 0.41777313869E+01 0.51905527084E+01 0.66472936103E+01
 0.84598585662E+01 0.10334698657E+02 0.11398470314E+02 0.10580232726E+02 0.77277594728E+01
 0.39904356089E+01 0.12891374326E+01 0.11524980380E+01 -.11950645878E+01 0.23642938917E+01
 0.70714546102E+01 0.10711062374E+02 0.11969060178E+02 0.11007794236E+02 0.90318136719E+01
 0.70779833007E+01 0.54907308616E+01 0.43695908053E+01 0.36855739280E+01 0.33727080616E+01
 0.33881572079E+01 0.37374444798E+01 0.44708752129E+01 0.56495106011E+01 0.72754547209E+01
 0.92002234513E+01 0.10952048578E+02 0.11332964464E+02 0.93675168554E+01 0.53228725293E+01
 0.86334169833E+00 -.17877728894E+01 0.14943132926E+01 0.23647554418E+01 0.54822478440E+01
 0.91833441529E+01 0.11650503242E+02 0.11991660870E+02 0.10598308208E+02 0.86057988862E+01
 0.67517371617E+01 0.52841958411E+01 0.42656601935E+01 0.36553639769E+01 0.33897088998E+01
 0.34327275323E+01 0.37955790607E+01 0.45297512729E+01 0.56922545884E+01 0.72795146794E+01
 0.91455688673E+01 0.10870816460E+02 0.11411816680E+02 0.99396842333E+01 0.67462084989E+01
 0.33104839990E+01 0.22221001825E+01 0.80004912893E+00 0.22223413199E+01 0.56972256711E+01
 0.93714703542E+01 0.11508373569E+02 0.11476277852E+02 0.99044739796E+01 0.79532457062E+01
 0.62157964384E+01 0.48905706980E+01 0.40096424277E+01 0.35216668196E+01 0.33671165812E+01
 0.35216687633E+01 0.40096227092E+01 0.48905716661E+01 0.62158457958E+01 0.79532454150E+01
 0.99043690718E+01 0.11476231278E+02 0.11508518629E+02 0.93716113339E+01 0.56971048568E+01
 0.54821606764E+01 0.23645136029E+01 0.14942778847E+01 0.33106828227E+01 0.67463346101E+01
 0.99396059185E+01 0.11411716559E+02 0.10870830297E+02 0.91456173121E+01 0.72795191762E+01
 0.56922488798E+01 0.45297533334E+01 0.37955642591E+01 0.34327215043E+01 0.33897358362E+01
 0.36553624437E+01 0.42656078441E+01 0.52841999271E+01 0.67518292677E+01 0.86058095197E+01
 0.10598158328E+02 0.11991576077E+02 0.11650665595E+02 0.91835332376E+01 0.95123838561E+01
 0.62029776189E+01 0.37176585173E+01 0.33956563887E+01 0.53232535497E+01 0.82933975727E+01
 0.10625256598E+02 0.11230115971E+02 0.10169112121E+02 0.83734840201E+01 0.66286879129E+01
 0.52140016405E+01 0.42226311321E+01 0.36348120455E+01 0.33931165229E+01 0.34566650222E+01
 0.38269168352E+01 0.45485602242E+01 0.56847122173E+01 0.72615340764E+01 0.91879706997E+01
 0.11177075171E+02 0.12428844546E+02 0.11929932683E+02 0.12350355014E+02 0.10313338618E+02
 0.76884159222E+01 0.59396544287E+01 0.60184799619E+01 0.77279574493E+01 0.98838362940E+01
 0.11141105110E+02 0.10859922553E+02 0.93982407039E+01 0.76306135473E+01 0.60376048598E+01
 0.48069313398E+01 0.39847826483E+01 0.35353332703E+01 0.34051599813E+01 0.35649966772E+01
 0.40270133888E+01 0.48403355471E+01 0.60625922172E+01 0.77033870059E+01 0.96494339977E+01
 0.11597425505E+02 0.12778471798E+02 0.12996451933E+02 0.12816762778E+02 0.11370205185E+02
 0.95489085875E+01 0.84757293020E+01 0.87266953448E+01 0.99378493685E+01 0.11096758481E+02
 0.11281865130E+02 0.10278279092E+02 0.86261117954E+01 0.69545805192E+01 0.55358476013E+01
 0.44901215877E+01 0.38267740700E+01 0.35017148187E+01 0.34687849023E+01 0.37097085307E+01
 0.42439961101E+01 0.51204153800E+01 0.63870813916E+01 0.80374543402E+01 0.99452281895E+01
 0.11818393219E+02 0.11805618564E+02 0.13013811365E+02 0.13166515291E+02 0.12368829115E+02
 0.11303371329E+02 0.10732689263E+02 0.10929885756E+02 0.11491555316E+02 0.11677858322E+02
 0.10996355692E+02 0.95626972315E+01 0.79105303742E+01 0.63794857570E+01 0.51464665616E+01
 0.42766389721E+01 0.37547774460E+01 0.35354727376E+01 0.35814392642E+01 0.38833564158E+01
 0.44640124127E+01 0.53673942111E+01 0.66296721423E+01 0.82309724566E+01 0.10042710473E+02
 0.99276872891E+01 0.11542600382E+02 0.12765300494E+02 0.13232005327E+02 0.13006170490E+02
 0.12533556654E+02 0.12258122833E+02 0.12253283875E+02 0.12180842904E+02 0.11606918788E+02
 0.10399248225E+02 0.88513752074E+01 0.72960153835E+01 0.59359708494E+01 0.48869188653E+01
 0.41747209842E+01 0.37712869164E+01 0.36350676548E+01 0.37377180988E+01 0.40759484291E+01
 0.46717607054E+01 0.55610690815E+01 0.67677768547E+01 0.82634741095E+01 0.81305356112E+01
 0.96077562523E+01 0.11044379521E+02 0.12224864515E+02 0.12909468838E+02 0.13094831451E+02
 0.13011060933E+02 0.12862891069E+02 0.12625768458E+02 0.12085279446E+02 0.11080308493E+02
 0.97155420438E+01 0.82328006290E+01 0.68281233034E+01 0.56504842234E+01 0.47698445712E+01
 0.41885696380E+01 0.38754050571E+01 0.37958396059E+01 0.39292633955E+01 0.42751595459E+01
 0.48514928312E+01 0.56846619155E+01 0.67880984195E+01 0.66887596829E+01 0.78446879719E+01
 0.91117456276E+01 0.10356490009E+02 0.11431815182E+02 0.12206236473E+02 0.12624406361E+02
 0.12753944455E+02 0.12649112928E+02 0.12262358918E+02 0.11509486365E+02 0.10416768304E+02
 0.91181525511E+01 0.77755019420E+01 0.65482460258E+01 0.55438392657E+01 0.48031724832E+01
 0.43187036543E+01 0.40629851830E+01 0.40098820582E+01 0.41446605308E+01 0.44668286227E+01
 0.49885322785E+01 0.57271136464E+01 0.56845394357E+01 0.64795358622E+01 0.74335550790E+01
 0.84856232638E+01 0.95397790029E+01 0.10489247698E+02 0.11247165867E+02 0.11758887236E+02
 0.11997631206E+02 0.11941480241E+02 0.11556839282E+02 0.10842370267E+02 0.98529807300E+01
 0.87035654354E+01 0.75392699231E+01 0.64883446218E+01 0.56296529345E+01 0.49898202154E+01
 0.45617123245E+01 0.43261923615E+01 0.42657554410E+01 0.43697988083E+01 0.46361539970E+01
 0.50709764330E+01 0.50911730870E+01 0.55608524953E+01 0.61803866262E+01 0.69354899680E+01
 0.77855605030E+01 0.86656407375E+01 0.95004717830E+01 0.10220555422E+02 0.10768143444E+02
 0.11091887270E+02 0.11142770565E+02 0.10885045015E+02 0.10320283565E+02 0.95054884831E+01
 0.85463752032E+01 0.75658431230E+01 0.66670534180E+01 0.59126006358E+01 0.53264547675E+01
 0.49092181155E+01 0.46529116878E+01 0.45485677317E+01 0.45886722934E+01 0.47690679454E+01
 0.48539483312E+01 0.50469274565E+01 0.53671834178E+01 0.58182840924E+01 0.63938630263E+01
 0.70702669194E+01 0.78070363279E+01 0.85537930744E+01 0.92564076322E+01 0.98571243755E+01
 0.10292018915E+02 0.10495864403E+02 0.10420212778E+02 0.10057093912E+02 0.94512973558E+01
 0.86897294672E+01 0.78729440581E+01 0.70863330641E+01 0.63860537951E+01 0.58016938321E+01
 0.53466292333E+01 0.50261320251E+01 0.48401869181E+01 0.47845391669E+01 0.49416284930E+01
 0.48831247773E+01 0.49417734915E+01 0.51202593485E+01 0.54235333189E+01 0.58515651183E+01
 0.63939964148E+01 0.70297037252E+01 0.77285435155E+01 0.84501146150E+01 0.91386427513E+01
 0.97206679104E+01 0.10114746447E+02 0.10254638095E+02 0.10114667820E+02 0.97206529270E+01
 0.91387289788E+01 0.84501606194E+01 0.77284581482E+01 0.70296051058E+01 0.63940411727E+01
 0.58517112052E+01 0.54235908461E+01 0.51201479506E+01 0.53671139647E+01 0.50467644413E+01
 0.48538855136E+01 0.47846433717E+01 0.48403227872E+01 0.50261298983E+01 0.53465006178E+01
 0.58016159057E+01 0.63861225931E+01 0.70864282254E+01 0.78729184594E+01 0.86896385831E+01
 0.94512990898E+01 0.10057180962E+02 0.10420227785E+02 0.10495775347E+02 0.10291982186E+02
 0.98572190381E+01 0.92564886543E+01 0.85537179957E+01 0.78068999493E+01 0.70702684560E+01
 0.63940149902E+01 0.58183943663E+01 0.61805198958E+01 0.55608441227E+01 0.50910362656E+01
 0.47689560194E+01 0.45887095031E+01 0.45487009654E+01 0.46529639954E+01 0.49091222198E+01
 0.53263557120E+01 0.59126411757E+01 0.66671518003E+01 0.75658316021E+01 0.85462822753E+01
 0.95054841343E+01 0.10320377335E+02 0.10885065935E+02 0.11142670450E+02 0.11091836212E+02
 0.10768243720E+02 0.10220660404E+02 0.95004137814E+01 0.86654911829E+01 0.77855215657E+01
 0.69356123262E+01 0.74336163186E+01 0.64796760037E+01 0.56846058162E+01 0.50708850858E+01
 0.46359997186E+01 0.43697703110E+01 0.42658852678E+01 0.43262877384E+01 0.45616343152E+01
 0.49897032613E+01 0.56296849131E+01 0.64884552049E+01 0.75392608783E+01 0.87034590302E+01
 0.98529739238E+01 0.10842479456E+02 0.11556868471E+02 0.11941365921E+02 0.11997557213E+02
 0.11758979854E+02 0.11247292544E+02 0.10489227858E+02 0.95396394584E+01 0.84855363339E+01
 0.91116292472E+01 0.78446714715E+01 0.66888762640E+01 0.57272407964E+01 0.49884989421E+01
 0.44666598955E+01 0.41445847572E+01 0.40099979077E+01 0.40630969115E+01 0.43186362218E+01
 0.48030575632E+01 0.55438764330E+01 0.65483559650E+01 0.77754815717E+01 0.91180425371E+01
 0.10416772953E+02 0.11509603473E+02 0.12262383489E+02 0.12648991265E+02 0.12753858246E+02
 0.12624477333E+02 0.12206361222E+02 0.11431838798E+02 0.10356392969E+02 0.11044356333E+02
 0.96076190489E+01 0.81304293379E+01 0.67881786433E+01 0.56848410589E+01 0.48515133893E+01
 0.42749854443E+01 0.39291588274E+01 0.37959485721E+01 0.38755226893E+01 0.41885030775E+01
 0.47697331623E+01 0.56505290428E+01 0.68282319044E+01 0.82327734473E+01 0.97154328741E+01
 0.11080314130E+02 0.12085390330E+02 0.12625798412E+02 0.12862788021E+02 0.13010962614E+02
 0.13094847072E+02 0.12909568629E+02 0.12224949081E+02 0.12765435195E+02 0.11542654210E+02
 0.99275503685E+01 0.82633038051E+01 0.67678197168E+01 0.55612659492E+01 0.46718095657E+01
 0.40757874319E+01 0.37376199054E+01 0.36351726006E+01 0.37713859670E+01 0.41746469864E+01
 0.48868266818E+01 0.59360309677E+01 0.72961117554E+01 0.88513346948E+01 0.10399145391E+02
 0.11606924672E+02 0.12180937727E+02 0.12253320392E+02 0.12258054480E+02 0.12533455604E+02