unknown system                          
   1.00000000000000     
    -2.418875    2.418875    1.318361
     2.418875   -2.418875    1.318361
     2.418875    2.418875   -1.318361
   Si
     2
Direct
  0.250000  0.750000  0.500000
  0.000000  0.000000  0.000000
 
   24   24   24
 -5.5606     -3.5397      1.4912      7.0899      10.886      11.860      10.611      8.5853      6.7098      5.2590    
  4.2898      3.7525      3.5824      3.7526      4.2898      5.2589      6.7098      8.5853      10.611      11.860    
  10.886      7.0900      1.4911     -3.5399     -3.5399     -4.5774     -1.7879      3.3937      8.4778      11.412    
  11.629      10.027      8.0085      6.2439      4.9319      4.0909      3.6604      3.5824      3.8431      4.4811    
  5.5633      7.1234      9.0659      11.039      11.943      10.443      6.2750     0.79664      1.4911     -1.7881    
 -1.8641      1.2907      6.0193      10.037      11.788      11.187      9.3301      7.3802      5.7624      4.6068    
  3.8987      3.5732      3.5823      3.9257      4.6502      5.8198      7.4495      9.4111      11.294      11.957    
  10.272      6.2750      7.0900      3.3936      1.2905      1.9431      4.9768      8.7324      11.340      11.829    
  10.533      8.5774      6.7461      5.2995      4.3055      3.7255      3.4963      3.5822      3.9941      4.7828    
  6.0055      7.6585      9.5915      11.379      11.957      10.443      10.886      8.4778      6.0192      4.9767    
  5.9999      8.4737      10.942      12.074      11.468      9.7380      7.8219      6.1492      4.8844      4.0458    
  3.5812      3.4345      3.5821      4.0429      4.8675      6.1030      7.7305      9.5915      11.294      11.943    
  11.860      11.412      10.037      8.7324      8.4737      9.5008      11.136      12.270      12.135      10.781    
  8.9171      7.1166      5.6270      4.5402      3.8408      3.4732      3.3913      3.5820      4.0684      4.8967    
  6.1030      7.6585      9.4111      11.039      10.611      11.629      11.788      11.340      10.942      11.136    
  11.899      12.637      12.646      11.641      9.9603      8.1487      6.5112      5.2097      4.2835      3.6996    
  3.4065      3.3691      3.5819      4.0684      4.8675      6.0055      7.4495      9.0659      8.5853      10.027    
  11.187      11.829      12.074      12.270      12.637      13.026      13.019      12.282      10.877      9.1818    
  7.5019      6.0477      4.9196      4.1254      3.6277      3.3840      3.3691      3.5820      4.0429      4.7828    
  5.8198      7.1234      6.7098      8.0086      9.3301      10.533      11.468      12.135      12.646      13.019    
  13.087      12.624      11.574      10.134      8.5458      7.0356      5.7571      4.7710      4.0721      3.6277    
  3.4065      3.3913      3.5821      3.9941      4.6502      5.5633      5.2589      6.2439      7.3803      8.5775    
  9.7381      10.781      11.641      12.282      12.624      12.536      11.943      10.900      9.5612      8.1307    
  6.7917      5.6581      4.7710      4.1254      3.6996      3.4732      3.4345      3.5822      3.9257      4.4811    
  4.2898      4.9319      5.7624      6.7462      7.8220      8.9172      9.9602      10.877      11.575      11.943    
  11.883      11.359      10.433      9.2502      7.9866      6.7917      5.7571      4.9196      4.2835      3.8408    
  3.5812      3.4963      3.5823      3.8431      3.7526      4.0910      4.6068      5.2995      6.1492      7.1167    
  8.1488      9.1818      10.134      10.900      11.359      11.414      11.031      10.267      9.2502      8.1307    
  7.0356      6.0477      5.2097      4.5402      4.0458      3.7255      3.5732      3.5824      3.5824      3.6605    
  3.8988      4.3056      4.8844      5.6270      6.5113      7.5021      8.5458      9.5611      10.433      11.031    
  11.244      11.031      10.433      9.5612      8.5458      7.5019      6.5112      5.6270      4.8844      4.3055    
  3.8987      3.6604      3.7525      3.5824      3.5733      3.7256      4.0458      4.5401      5.2096      6.0478    
  7.0357      8.1307      9.2502      10.267      11.031      11.414      11.359      10.900      10.134      9.1818    
  8.1487      7.1166      6.1492      5.2995      4.6068      4.0909      4.2898      3.8431      3.5823      3.4964    
  3.5814      3.8409      4.2835      4.9195      5.7571      6.7918      7.9866      9.2502      10.433      11.359    
  11.883      11.943      11.574      10.877      9.9603      8.9171      7.8219      6.7461      5.7624      4.9319    
  5.2590      4.4812      3.9258      3.5822      3.4346      3.4734      3.6997      4.1254      4.7709      5.6581    
  6.7918      8.1307      9.5611      10.900      11.943      12.536      12.624      12.282      11.641      10.781    
  9.7380      8.5774      7.3802      6.2439      6.7098      5.5634      4.6503      3.9942      3.5821      3.3914    
  3.4067      3.6279      4.0721      4.7709      5.7571      7.0357      8.5458      10.134      11.575      12.624    
  13.087      13.019      12.646      12.135      11.468      10.533      9.3301      8.0085      8.5853      7.1234    
  5.8199      4.7831      4.0431      3.5820      3.3692      3.3842      3.6279      4.1254      4.9195      6.0478    
  7.5021      9.1818      10.877      12.282      13.019      13.026      12.637      12.270      12.074      11.829    
  11.187      10.027      10.611      9.0659      7.4495      6.0056      4.8678      4.0686      3.5820      3.3692    
  3.4067      3.6997      4.2835      5.2096      6.5113      8.1488      9.9602      11.641      12.646      12.637    
  11.899      11.136      10.942      11.340      11.788      11.629      11.860      11.039      9.4111      7.6584    
  6.1032      4.8970      4.0686      3.5820      3.3914      3.4734      3.8409      4.5401      5.6270      7.1167    
  8.9172      10.781      12.135      12.270      11.136      9.5008      8.4737      8.7324      10.037      11.412    
  10.886      11.943      11.295      9.5916      7.7304      6.1032      4.8678      4.0431      3.5821      3.4346    
  3.5814      4.0458      4.8844      6.1492      7.8220      9.7381      11.468      12.074      10.942      8.4737    
  5.9999      4.9768      6.0193      8.4778      7.0899      10.443      11.958      11.379      9.5916      7.6584    
  6.0056      4.7831      3.9942      3.5822      3.4964      3.7256      4.3056      5.2995      6.7462      8.5775    
  10.533      11.829      11.340      8.7324      4.9767      1.9431      1.2907      3.3937      1.4912      6.2750    
  10.271      11.958      11.295      9.4111      7.4495      5.8199      4.6503      3.9258      3.5823      3.5733    
  3.8988      4.6068      5.7624      7.3803      9.3301      11.187      11.788      10.037      6.0192      1.2905    
 -1.8641     -1.7879     -3.5397     0.79679      6.2750      10.443      11.943      11.039      9.0659      7.1234    
  5.5634      4.4812      3.8431      3.5824      3.6605      4.0910      4.9319      6.2439      8.0086      10.027    
  11.629      11.412      8.4778      3.3936     -1.7881     -4.5774     -3.5395     -2.1036      2.2182      7.2659    
  10.794      11.725      10.519      8.5149      6.6351      5.1613      4.1592      3.5838      3.3692      3.4829    
  3.9442      4.8136      6.1472      7.9153      9.9051      11.407      11.065      8.1312      3.3080     -1.3513    
 -2.1038     -3.5395     -1.3511      3.3081      8.1312      11.065      11.407      9.9052      7.9153      6.1473    
  4.8136      3.9442      3.4828      3.3692      3.5837      4.1591      5.1612      6.6351      8.5149      10.519    
  11.725      10.794      7.2660      2.2181      2.3594     -1.1972     -1.7878     0.86430      5.3234      9.3668    
  11.332      10.952      9.2023      7.2803      5.6578      4.4830      3.7531      3.4062      3.3913      3.7027    
  4.3838      5.5013      7.0848      9.0344      11.005      11.962      10.702      7.0638      7.6180      3.7121    
  1.1508      1.2908      3.9944      7.7323      10.584      11.401      10.337      8.4629      6.6526      5.1992    
  4.1902      3.5971      3.3583      3.4344      3.8323      4.6021      5.8071      7.4591      9.4311      11.341    
  12.161      10.893      11.342      8.7872      5.9352      4.3753      4.9769      7.3091      9.9479      11.431    
  11.155      9.5971      7.7324      6.0706      4.7984      3.9514      3.4848      3.3421      3.4961      3.9637    
  4.7976      6.0528      7.7244      9.6689      11.509      12.325      12.405      11.900      10.242      8.4746    
  7.7382      8.4737      10.116      11.507      11.710      10.600      8.8248      7.0544      5.5674      4.4760    
  3.7780      3.4214      3.3584      3.5729      4.0881      4.9543      6.2162      7.8549      9.7236      11.488    
  11.260      12.322      12.351      11.574      10.737      10.548      11.136      11.953      12.200      11.432    
  9.8662      8.0958      6.4708      5.1695      4.2468      3.6771      3.4095      3.4062      3.6601      4.1963    
  5.0592      6.2819      7.8372      9.5867      9.2681      10.824      12.001      12.495      12.436      12.268    
  12.352      12.637      12.699      12.105      10.795      9.1328      7.4688      6.0193      4.8975      4.1202    
  3.6522      3.4490      3.4829      3.7523      4.2804      5.1033      6.2440      7.6722      7.3754      8.7947    
  10.206      11.417      12.223      12.645      12.877      13.040      13.018      12.559      11.528      10.088    
  8.5052      6.9999      5.7308      4.7655      4.1013      3.7037      3.5377      3.5839      3.8430      4.3337    
  5.0831      6.1062      5.8820      6.9745      8.2069      9.4639      10.620      11.564      12.238      12.665    
  12.829      12.624      11.951      10.858      9.4980      8.0636      6.7348      5.6270      4.7818      4.1915    
  3.8293      3.6709      3.7030      3.9259      4.3521      5.0007      4.8638      5.5921      6.5051      7.5541    
  8.6584      9.7261      10.676      11.441      11.957      12.149      11.943      11.318      10.333      9.1276    
  7.8693      6.7038      5.7194      4.9483      4.3880      4.0239      3.8418      3.8326      3.9945      4.3340    
  4.2808      4.6844      5.2616      6.0062      6.8878      7.8528      8.8345      9.7633      10.566      11.157    
  11.446      11.359      10.881      10.069      9.0464      7.9562      6.9183      6.0081      5.2599      4.6837    
  4.2790      4.0412      3.9642      4.0435      4.0690      4.1969      4.4771      4.9168      5.5155      6.2571    
  7.1089      8.0255      8.9502      9.8092      10.508      10.943      11.031      10.743      10.126      9.2804    
  8.3267      7.3692      6.4802      5.7037      5.0660      4.5822      4.2575      4.0885      4.1967      4.0690    
  4.0886      4.2576      4.5822      5.0659      5.7037      6.4803      7.3693      8.3267      9.2804      10.126    
  10.743      11.031      10.943      10.508      9.8093      8.9502      8.0254      7.1087      6.2571      5.5156    
  4.9168      4.4769      4.6843      4.2807      4.0434      3.9642      4.0414      4.2791      4.6837      5.2599    
  6.0082      6.9185      7.9562      9.0463      10.069      10.881      11.359      11.446      11.157      10.566    
  9.7633      8.8344      7.8526      6.8878      6.0063      5.2616      5.5921      4.8638      4.3338      3.9944    
  3.8327      3.8420      4.0241      4.3880      4.9483      5.7195      6.7039      7.8693      9.1275      10.334    
  11.318      11.943      12.149      11.957      11.441      10.676      9.7260      8.6582      7.5540      6.5051    
  6.9744      5.8820      5.0007      4.3520      3.9257      3.7030      3.6711      3.8295      4.1915      4.7817    
  5.6270      6.7349      8.0636      9.4979      10.858      11.951      12.624      12.829      12.665      12.238    
  11.564      10.620      9.4638      8.2068      8.7945      7.3753      6.1063      5.0832      4.3337      3.8429    
  3.5839      3.5379      3.7038      4.1013      4.7654      5.7308      7.0000      8.5052      10.088      11.528    
  12.559      13.018      13.040      12.877      12.645      12.223      11.417      10.206      10.824      9.2680    
  7.6721      6.2440      5.1035      4.2805      3.7522      3.4829      3.4492      3.6523      4.1201      4.8974    
  6.0194      7.4689      9.1328      10.795      12.105      12.699      12.637      12.352      12.268      12.436    
  12.495      12.001      12.322      11.261      9.5866      7.8370      6.2820      5.0595      4.1965      3.6601    
  3.4062      3.4097      3.6772      4.2467      5.1694      6.4709      8.0959      9.8662      11.432      12.200    
  11.953      11.136      10.548      10.737      11.574      12.351      11.900      12.406      11.488      9.7235    
  7.8548      6.2163      4.9546      4.0883      3.5729      3.3584      3.4216      3.7781      4.4760      5.5673    
  7.0545      8.8248      10.600      11.710      11.507      10.115      8.4736      7.7381      8.4744      10.242    
  8.7870      11.342      12.325      11.509      9.6689      7.7243      6.0529      4.7979      3.9639      3.4962    
  3.3422      3.4850      3.9515      4.7983      6.0706      7.7325      9.5971      11.155      11.431      9.9476    
  7.3089      4.9768      4.3753      5.9351      3.7121      7.6178      10.893      12.161      11.342      9.4312    
  7.4591      5.8073      4.6024      3.8324      3.4345      3.3584      3.5972      4.1902      5.1991      6.6526    
  8.4629      10.337      11.401      10.584      7.7321      3.9942      1.2907      1.1509     -1.1970      2.3595    
  7.0637      10.702      11.962      11.005      9.0345      7.0848      5.5014      4.3840      3.7029      3.3914    
  3.4062      3.7531      4.4830      5.6577      7.2803      9.2022      10.952      11.332      9.3668      5.3232    
 0.86405     -1.7878      1.4919      2.3600      5.4739      9.1717      11.638      11.982      10.593      8.6057    
  6.7561      5.2927      4.2781      3.6708      3.4065      3.4489      3.8094      4.5400      5.6986      7.2821    
  9.1448      10.867      11.406      9.9346      6.7428      3.3084      2.2185     0.79747      2.2187      5.6911    
  9.3628      11.499      11.469      9.9017      7.9547      6.2213      4.9001      4.0229      3.5376      3.3840    
  3.5375      4.0228      4.9000      6.2213      7.9546      9.9015      11.469      11.499      9.3629      5.6909    
  5.4738      2.3598      1.4919      3.3086      6.7430      9.9346      11.406      10.867      9.1449      7.2822    
  5.6987      4.5401      3.8094      3.4489      3.4065      3.6707      4.2780      5.2927      6.7561      8.6057    
  10.593      11.982      11.638      9.1719      9.4984      6.1930      3.7124      3.3942      5.3237      8.2938    
  10.625      11.229      10.168      8.3744      6.6323      5.2211      4.2336      3.6491      3.4095      3.4732    
  3.8417      4.5600      5.6921      7.2646      9.1863      11.170      12.416      11.915      12.333      10.298    
  7.6780      5.9353      6.0196      7.7325      9.8891      11.145      10.862      9.3995      7.6326      6.0418    
  4.8145      3.9961      3.5499      3.4215      3.5812      4.0411      4.8509      6.0689      7.7051      9.6462    
  11.588      12.764      12.981      12.799      11.355      9.5400      8.4746      8.7325      9.9479      11.107    
  11.290      10.283      8.6287      6.9572      5.5404      4.4980      3.8383      3.5163      3.4850      3.7255    
  4.2574      5.1301      6.3923      8.0380      9.9406      11.808      11.794      12.998      13.150      12.356    
  11.298      10.737      10.942      11.507      11.692      11.007      9.5684      7.9136      6.3823      5.1511    
  4.2846      3.7664      3.5500      3.5974      3.8987      4.4769      5.3764      6.6341      8.2305      10.037    
  9.9211      11.531      12.750      13.217      12.997      12.534      12.268      12.270      12.200      11.623    
  10.410      8.8571      7.2990      5.9387      4.8915      4.1825      3.7827      3.6494      3.7534      4.0910    
  4.6842      5.5696      6.7716      8.2622      8.1287      9.6007      11.033      12.211      12.898      13.090    
  13.016      12.877      12.645      12.105      11.096      9.7253      8.2379      6.8308      5.6530      4.7742    
  4.1960      3.8864      3.8097      3.9446      4.2899      4.8637      5.6929      6.7915      6.6920      7.8426    
  9.1047      10.346      11.421      12.199      12.624      12.763      12.665      12.282      11.528      10.430    
  9.1265      7.7798      6.5503      5.5458      4.8069      4.3255      4.0733      4.0232      4.1596      4.4814    
  5.0007      5.7353      5.6928      6.4828      7.4316      8.4792      9.5307      10.481      11.243      11.761    
  12.008      11.957      11.574      10.858      9.8644      8.7105      7.5427      6.4897      5.6308      4.9926    
  4.5674      4.3355      4.2783      4.3842      4.6505      5.0832      5.1035      5.5694      6.1841      6.9341    
  7.7802      8.6583      9.4942      10.218      10.772      11.102      11.157      10.900      10.333      9.5152    
  8.5523      7.5685      6.6676      5.9126      5.3279      4.9136      4.6610      4.5602      4.6026      4.7833    
  4.8680      5.0594      5.3762      5.8227      6.3936      7.0664      7.8017      8.5498      9.2561      9.8618    
  10.301      10.508      10.433      10.069      9.4601      8.6950      7.8748      7.0857      6.3846      5.8014    
  5.3494      5.0329      4.8508      4.7979      4.9545      4.8971      4.9546      5.1300      5.4290      5.8527    
  6.3919      7.0264      7.7264      8.4510      9.1436      9.7294      10.126      10.267      10.126      9.7294    
  9.1437      8.4511      7.7263      7.0263      6.3920      5.8528      5.4291      5.1299      5.3761      5.0592    
  4.8679      4.7979      4.8509      5.0329      5.3493      5.8014      6.3847      7.0858      7.8747      8.6949    
  9.4601      10.069      10.433      10.508      10.301      9.8619      9.2562      8.5497      7.8016      7.0664    
  6.3937      5.8228      6.1841      5.5693      5.1032      4.7830      4.6025      4.5603      4.6610      4.9135    
  5.3278      5.9127      6.6677      7.5684      8.5522      9.5152      10.334      10.900      11.157      11.102    
  10.772      10.219      9.4942      8.6582      7.7801      6.9342      7.4316      6.4828      5.6927      5.0829    
  4.6502      4.3841      4.2784      4.3356      4.5673      4.9925      5.6309      6.4898      7.5426      8.7104    
  9.8644      10.858      11.574      11.957      12.008      11.761      11.243      10.481      9.5305      8.4790    
  9.1045      7.8425      6.6919      5.7353      5.0005      4.4811      4.1594      4.0232      4.0734      4.3254    
  4.8067      5.5458      6.5504      7.7797      9.1264      10.430      11.528      12.282      12.665      12.762    
  12.624      12.199      11.421      10.346      11.033      9.6005      8.1285      6.7914      5.6930      4.8637    
  4.2897      3.9444      3.8098      3.8865      4.1959      4.7740      5.6530      6.8308      8.2379      9.7252    
  11.096      12.105      12.645      12.877      13.016      13.090      12.898      12.211      12.750      11.531    
  9.9209      8.2620      6.7715      5.5697      4.6842      4.0908      3.7533      3.6495      3.7828      4.1824    
  4.8914      5.9387      7.2991      8.8571      10.410      11.623      12.200      12.270      12.268      12.533    
  12.997      13.217      13.150      12.998      11.794      10.037      8.2303      6.6341      5.3765      4.4769    
  3.8986      3.5973      3.5501      3.7664      4.2845      5.1510      6.3823      7.9136      9.5683      11.006    
  11.692      11.507      10.941      10.736      11.298      12.356      11.355      12.799      12.981      11.808    
  9.9405      8.0378      6.3923      5.1303      4.2575      3.7254      3.4849      3.5164      3.8384      4.4979    
  5.5403      6.9572      8.6287      10.283      11.289      11.107      9.9476      8.7324      8.4744      9.5397    
  7.6778      10.298      12.333      12.764      11.588      9.6462      7.7050      6.0689      4.8510      4.0412    
  3.5811      3.4215      3.5499      3.9961      4.8144      6.0418      7.6326      9.3994      10.862      11.145    
  9.8888      7.7323      6.0195      5.9353      3.7125      6.1930      9.4982      11.915      12.416      11.170    
  9.1863      7.2645      5.6921      4.5602      3.8418      3.4732      3.4095      3.6491      4.2335      5.2210    
  6.6322      8.3743      10.168      11.229      10.624      8.2936      5.3234      3.3941      7.0906      7.6183    
  9.4982      11.626      12.764      12.350      10.761      8.8484      7.0827      5.6689      4.6611      4.0240    
  3.6997      3.6522      3.8863      4.4436      5.3775      6.7040      8.3382      10.048      11.271      11.257    
  9.9346      8.1316      7.2663      6.2757      7.0643      9.1718      11.321      12.287      11.662      9.9922    
  8.1297      6.4765      5.2025      4.3355      3.8294      3.6278      3.7038      4.0732      4.7867      5.8965    
  7.3987      9.1652      10.884      11.803      11.236      9.3628      9.1717      7.0641      6.2757      7.2666    
  9.3629      11.236      11.803      10.884      9.1653      7.3987      5.8965      4.7867      4.0732      3.7038    
  3.6278      3.8294      4.3355      5.2025      6.4766      8.1297      9.9920      11.662      12.287      11.321    
  11.626      9.4982      7.6181      7.0906      8.1318      9.9348      11.257      11.271      10.048      8.3382    
  6.7041      5.3776      4.4437      3.8863      3.6523      3.6997      4.0240      4.6611      5.6689      7.0828    
  8.8485      10.761      12.350      12.765      13.234      12.154      10.298      8.7871      8.4782      9.3672    
  10.625      11.220      10.647      9.1985      7.5580      6.0843      4.9460      4.1888      3.7827      3.6772    
  3.8409      4.2791      5.0331      6.1573      7.6721      9.4986      11.409      12.909      13.289      13.635    
  12.792      11.355      10.242      10.037      10.584      11.145      10.987      9.9236      8.3897      6.8621    
  5.5681      4.6202      4.0323      3.7664      3.7782      4.0459      4.5823      5.4293      6.6330      8.1965    
  10.021      11.871      12.095      13.427      13.862      13.342      12.356      11.574      11.340      11.431    
  11.290      10.505      9.1566      7.6601      6.2803      5.1759      4.4119      3.9795      3.8385      3.9517    
  4.3056      4.9168      5.8230      7.0580      8.6080      10.363      10.485      12.047      13.270      13.801    
  13.596      12.997      12.435      12.074      11.710      11.006      9.8399      8.4347      7.0432      5.8369    
  4.9222      4.3281      4.0323      3.9964      4.1905      4.6069      5.2616      6.1843      7.3948      8.8655    
  8.9416      10.370      11.724      12.801      13.383      13.414      13.090      12.644      12.135      11.432    
  10.410      9.1437      7.8127      6.5728      5.5525      4.8171      4.3719      4.1889      4.2339      4.4834    
  4.9320      5.5920      6.4829      7.6112      7.6858      8.8271      10.028      11.154      12.057      12.619    
  12.784      12.624      12.238      11.641      10.794      9.7253      8.5329      7.3415      6.2810      5.4438    
  4.8669      4.5429      4.4437      4.5404      4.8140      5.2591      5.8818      6.6918      6.7911      7.6109    
  8.5335      9.4922      10.390      11.124      11.615      11.826      11.761      11.441      10.876      10.088    
  9.1265      8.0823      7.0702      6.1952      5.5230      5.0741      4.8368      4.7867      4.9003      5.1617    
  5.5635      6.1060      6.2438      6.7710      7.3942      8.0905      8.8154      9.5058      10.094      10.522    
  10.755      10.772      10.566      10.134      9.4979      8.7105      7.8579      7.0383      6.3348      5.7962    
  5.4359      5.2441      5.2024      5.2928      5.5016      5.8200      6.0057      6.2818      6.6335      7.0573    
  7.5414      8.0612      8.5809      9.0591      9.4558      9.7345      9.8619      9.8093      9.5611      9.1276    
  8.5523      7.9065      7.2696      6.7079      6.2609      5.9422      5.7482      5.6686      5.6920      5.8073    
  6.0528      6.1032      6.2161      6.3919      6.6324      6.9360      7.2943      7.6918      8.1072      8.5128    
  8.8728      9.1437      9.2805      9.2502      9.0463      8.6950      8.2484      7.7680      7.3074      6.9027    
  6.5726      6.3238      6.1569      6.0685      6.3918      6.2160      6.1032      6.0529      6.0686      6.1568    
  6.3236      6.5725      6.9028      7.3075      7.7680      8.2483      8.6950      9.0464      9.2502      9.2804    
  9.1437      8.8729      8.5128      8.1071      7.6918      7.2944      6.9362      6.6325      7.0575      6.6335    
  6.2816      6.0055      5.8073      5.6920      5.6686      5.7480      5.9421      6.2610      6.7080      7.2696    
  7.9063      8.5523      9.1276      9.5611      9.8092      9.8619      9.7347      9.4560      9.0591      8.5808    
  8.0613      7.5416      8.0906      7.3943      6.7710      6.2435      5.8197      5.5015      5.2928      5.2024    
  5.2439      5.4358      5.7962      6.3349      7.0383      7.8577      8.7105      9.4980      10.134      10.565    
  10.772      10.755      10.522      10.094      9.5057      8.8154      9.4920      8.5335      7.6110      6.7911    
  6.1058      5.5631      5.1614      4.9003      4.7867      4.8367      5.0739      5.5230      6.1953      7.0702    
  8.0821      9.1265      10.088      10.876      11.441      11.761      11.826      11.615      11.124      10.390    
  11.154      10.028      8.8270      7.6858      6.6918      5.8817      5.2587      4.8138      4.5404      4.4437    
  4.5428      4.8667      5.4438      6.2811      7.3414      8.5328      9.7253      10.795      11.641      12.238    
  12.624      12.784      12.619      12.057      12.801      11.724      10.370      8.9413      7.6112      6.4829    
  5.5918      4.9317      4.4831      4.2339      4.1889      4.3717      4.8169      5.5525      6.5729      7.8126    
  9.1436      10.410      11.432      12.135      12.644      13.090      13.414      13.383      13.801      13.270    
  12.047      10.485      8.8652      7.3946      6.1844      5.2615      4.6066      4.1903      3.9964      4.0323    
  4.3279      4.9221      5.8369      7.0433      8.4347      9.8398      11.006      11.710      12.074      12.435    
  12.997      13.595      13.342      13.862      13.427      12.095      10.363      8.6076      7.0579      5.8231    
  4.9167      4.3054      3.9515      3.8385      3.9795      4.4117      5.1758      6.2803      7.6601      9.1566    
  10.505      11.290      11.431      11.340      11.574      12.355      11.355      12.792      13.635      13.289    
  11.871      10.021      8.1962      6.6329      5.4294      4.5822      4.0457      3.7781      3.7665      4.0323    
  4.6201      5.5680      6.8621      8.3897      9.9235      10.987      11.145      10.584      10.037      10.242    
  8.7872      10.298      12.154      13.234      12.909      11.409      9.4985      7.6719      6.1572      5.0331    
  4.2791      3.8408      3.6772      3.7827      4.1888      4.9459      6.0843      7.5580      9.1985      10.647    
  11.220      10.625      9.3670      8.4782      10.887      11.342      12.333      13.233      13.358      12.469    
  10.926      9.2181      7.6296      6.3239      5.3495      4.6838      4.2836      4.1203      4.1961      4.5429    
  5.2056      6.2090      7.5130      8.9792      10.373      11.271      11.406      11.066      10.794      10.444    
  10.893      11.914      12.764      12.744      11.707      10.106      8.4254      6.9273      5.7483      4.9137    
  4.3881      4.1256      4.1015      4.3256      4.8369      5.6815      6.8721      8.3378      9.8956      11.223    
  11.803      11.499      11.638      10.702      10.272      10.702      11.638      12.287      12.022      10.826    
  9.2205      7.6250      6.2648      5.2442      4.5675      4.1916      4.0723      4.1917      4.5675      5.2442    
  6.2649      7.6250      9.2205      10.826      12.022      12.287      12.764      11.914      10.893      10.444    
  10.794      11.499      11.803      11.223      9.8956      8.3379      6.8721      5.6815      4.8369      4.3255    
  4.1015      4.1256      4.3882      4.9137      5.7483      6.9275      8.4255      10.106      11.707      12.745    
  13.358      13.234      12.333      11.342      10.887      11.066      11.406      11.271      10.373      8.9792    
  7.5130      6.2090      5.2057      4.5429      4.1961      4.1203      4.2836      4.6838      5.3495      6.3240    
  7.6299      9.2183      10.926      12.469      13.041      13.805      13.635      12.798      11.900      11.412    
  11.332      11.229      10.647      9.5046      8.1257      6.7873      5.6655      4.8556      4.3719      4.1826    
  4.2469      4.5402      5.0660      5.8529      6.9364      8.3219      9.9386      11.606      12.075      13.356    