   2   2   0   0
  0.1529437E+02  0.3691622E-09  0.3691622E-09  0.3691622E-09  0.5000000E-15
  1.000000000000000E-004
  CAR 
 unknown system                          
     23.58688384     -6.53939392  301      9.00206597      1.00000000
     -6.539  0.0000E+00  0.0000E+00
     -6.439  0.0000E+00  0.0000E+00
     -6.339  0.0000E+00  0.0000E+00
     -6.238  0.0000E+00  0.0000E+00
     -6.138  0.0000E+00  0.0000E+00
     -6.037  0.0000E+00  0.0000E+00
     -5.937  0.0000E+00  0.0000E+00
     -5.836  0.0000E+00  0.0000E+00
     -5.736  0.0000E+00  0.0000E+00
     -5.636  0.4722E-16  0.4742E-17
     -5.535  0.9830E-14  0.9919E-15
     -5.435  0.1252E-11  0.1267E-12
     -5.334  0.9713E-10  0.9881E-11
     -5.234  0.4600E-08  0.4719E-09
     -5.134  0.1332E-06  0.1385E-07
     -5.033  0.2361E-05  0.2509E-06
     -4.933  0.2568E-04  0.2829E-05
     -4.832  0.1719E-03  0.2009E-04
     -4.732  0.7126E-03  0.9165E-04
     -4.631  0.1856E-02  0.2781E-03
     -4.531  0.3186E-02  0.5980E-03
     -4.431  0.4210E-02  0.1021E-02
     -4.330  0.5888E-02  0.1612E-02
     -4.230  0.9518E-02  0.2568E-02
     -4.129  0.1353E-01  0.3926E-02
     -4.029  0.1466E-01  0.5398E-02
     -3.928  0.1270E-01  0.6674E-02
     -3.828  0.9975E-02  0.7676E-02
     -3.728  0.8342E-02  0.8513E-02
     -3.627  0.9229E-02  0.9440E-02
     -3.527  0.1375E-01  0.1082E-01
     -3.426  0.2091E-01  0.1292E-01
     -3.326  0.2549E-01  0.1548E-01
     -3.226  0.2256E-01  0.1774E-01
     -3.125  0.1659E-01  0.1941E-01
     -3.025  0.1599E-01  0.2102E-01
     -2.924  0.1978E-01  0.2300E-01
     -2.824  0.2094E-01  0.2511E-01
     -2.723  0.1859E-01  0.2697E-01
     -2.623  0.1756E-01  0.2874E-01
     -2.523  0.1963E-01  0.3071E-01
     -2.422  0.2248E-01  0.3296E-01
     -2.322  0.2471E-01  0.3545E-01
     -2.221  0.2623E-01  0.3808E-01
     -2.121  0.2531E-01  0.4062E-01
     -2.020  0.2237E-01  0.4287E-01
     -1.920  0.2397E-01  0.4528E-01
     -1.820  0.3182E-01  0.4847E-01
     -1.719  0.3567E-01  0.5205E-01
     -1.619  0.2892E-01  0.5496E-01
     -1.518  0.1826E-01  0.5679E-01
     -1.418  0.1161E-01  0.5796E-01
     -1.318  0.1166E-01  0.5913E-01
     -1.217  0.2007E-01  0.6114E-01
     -1.117  0.3603E-01  0.6476E-01
     -1.016  0.5096E-01  0.6988E-01
     -0.916  0.5290E-01  0.7519E-01
     -0.815  0.4181E-01  0.7939E-01
     -0.715  0.3111E-01  0.8251E-01
     -0.615  0.2872E-01  0.8540E-01
     -0.514  0.2986E-01  0.8840E-01
     -0.414  0.2880E-01  0.9129E-01
     -0.313  0.2528E-01  0.9383E-01
     -0.213  0.2174E-01  0.9601E-01
     -0.112  0.2119E-01  0.9814E-01
     -0.012  0.2467E-01  0.1006E+00
      0.088  0.2862E-01  0.1035E+00
      0.189  0.2973E-01  0.1065E+00
      0.289  0.3173E-01  0.1097E+00
      0.390  0.4004E-01  0.1137E+00
      0.490  0.5212E-01  0.1189E+00
      0.590  0.5834E-01  0.1248E+00
      0.691  0.5246E-01  0.1300E+00
      0.791  0.4004E-01  0.1341E+00
      0.892  0.3207E-01  0.1373E+00
      0.992  0.3225E-01  0.1405E+00
      1.093  0.3933E-01  0.1445E+00
      1.193  0.5065E-01  0.1496E+00
      1.293  0.5846E-01  0.1554E+00
      1.394  0.5713E-01  0.1612E+00
      1.494  0.5010E-01  0.1662E+00
      1.595  0.4199E-01  0.1704E+00
      1.695  0.3273E-01  0.1737E+00
      1.796  0.2316E-01  0.1760E+00
      1.896  0.1693E-01  0.1777E+00
      1.996  0.1595E-01  0.1793E+00
      2.097  0.1913E-01  0.1812E+00
      2.197  0.2408E-01  0.1837E+00
      2.298  0.2893E-01  0.1866E+00
      2.398  0.3261E-01  0.1898E+00
      2.498  0.3556E-01  0.1934E+00
      2.599  0.4211E-01  0.1976E+00
      2.699  0.5363E-01  0.2030E+00
      2.800  0.6246E-01  0.2093E+00
      2.900  0.6286E-01  0.2156E+00
      3.001  0.5780E-01  0.2214E+00
      3.101  0.5115E-01  0.2266E+00
      3.201  0.4334E-01  0.2309E+00
      3.302  0.3426E-01  0.2344E+00
      3.402  0.2586E-01  0.2369E+00
      3.503  0.2145E-01  0.2391E+00
      3.603  0.2436E-01  0.2415E+00
      3.704  0.3436E-01  0.2450E+00
      3.804  0.4334E-01  0.2494E+00
      3.904  0.4278E-01  0.2536E+00
      4.005  0.3528E-01  0.2572E+00
      4.105  0.2919E-01  0.2601E+00
      4.206  0.3018E-01  0.2632E+00
      4.306  0.4101E-01  0.2673E+00
      4.406  0.5915E-01  0.2732E+00
      4.507  0.7482E-01  0.2807E+00
      4.607  0.7924E-01  0.2887E+00
      4.708  0.7517E-01  0.2962E+00
      4.808  0.6943E-01  0.3032E+00
      4.909  0.6089E-01  0.3093E+00
      5.009  0.4832E-01  0.3142E+00
      5.109  0.3811E-01  0.3180E+00
      5.210  0.3374E-01  0.3214E+00
      5.310  0.3033E-01  0.3244E+00
      5.411  0.2625E-01  0.3271E+00
      5.511  0.2741E-01  0.3298E+00
      5.612  0.3756E-01  0.3336E+00
      5.712  0.5327E-01  0.3389E+00
      5.812  0.6822E-01  0.3458E+00
      5.913  0.7840E-01  0.3537E+00
      6.013  0.8198E-01  0.3619E+00
      6.114  0.7705E-01  0.3696E+00
      6.214  0.6302E-01  0.3760E+00
      6.314  0.4547E-01  0.3805E+00
      6.415  0.3579E-01  0.3841E+00
      6.515  0.4107E-01  0.3882E+00
      6.616  0.5696E-01  0.3940E+00
      6.716  0.6967E-01  0.4010E+00
      6.817  0.6668E-01  0.4077E+00
      6.917  0.5313E-01  0.4130E+00
      7.017  0.4751E-01  0.4178E+00
      7.118  0.5635E-01  0.4234E+00
      7.218  0.7119E-01  0.4306E+00
      7.319  0.8547E-01  0.4392E+00
      7.419  0.9538E-01  0.4487E+00
      7.520  0.9520E-01  0.4583E+00
      7.620  0.8332E-01  0.4667E+00
      7.720  0.6682E-01  0.4734E+00
      7.821  0.5627E-01  0.4790E+00
      7.921  0.5338E-01  0.4844E+00
      8.022  0.5079E-01  0.4895E+00
      8.122  0.4514E-01  0.4940E+00
      8.222  0.3869E-01  0.4979E+00
      8.323  0.3319E-01  0.5012E+00
      8.423  0.3188E-01  0.5044E+00
      8.524  0.3691E-01  0.5081E+00
      8.624  0.4337E-01  0.5125E+00
      8.725  0.4698E-01  0.5172E+00
      8.825  0.5208E-01  0.5224E+00
      8.925  0.6034E-01  0.5285E+00
      9.026  0.6237E-01  0.5348E+00
      9.126  0.5312E-01  0.5401E+00
      9.227  0.4216E-01  0.5443E+00
      9.327  0.4025E-01  0.5484E+00
      9.428  0.4695E-01  0.5531E+00
      9.528  0.5234E-01  0.5583E+00
      9.628  0.4809E-01  0.5632E+00
      9.729  0.3668E-01  0.5669E+00
      9.829  0.2585E-01  0.5695E+00
      9.930  0.2059E-01  0.5715E+00
     10.030  0.2331E-01  0.5739E+00
     10.130  0.3273E-01  0.5772E+00
     10.231  0.4355E-01  0.5815E+00
     10.331  0.5240E-01  0.5868E+00
     10.432  0.5933E-01  0.5927E+00
     10.532  0.6165E-01  0.5989E+00
     10.633  0.5591E-01  0.6046E+00
     10.733  0.4642E-01  0.6092E+00
     10.833  0.4542E-01  0.6138E+00
     10.934  0.6051E-01  0.6199E+00
     11.034  0.8199E-01  0.6281E+00
     11.135  0.8947E-01  0.6371E+00
     11.235  0.7633E-01  0.6447E+00
     11.336  0.5769E-01  0.6505E+00
     11.436  0.4840E-01  0.6554E+00
     11.536  0.4924E-01  0.6603E+00
     11.637  0.5559E-01  0.6659E+00
     11.737  0.6317E-01  0.6723E+00
     11.838  0.7110E-01  0.6794E+00
     11.938  0.8355E-01  0.6878E+00
     12.038  0.9877E-01  0.6977E+00
     12.139  0.1042E+00  0.7082E+00
     12.239  0.9451E-01  0.7177E+00
     12.340  0.7884E-01  0.7256E+00
     12.440  0.6237E-01  0.7318E+00
     12.541  0.4304E-01  0.7362E+00
     12.641  0.2561E-01  0.7387E+00
     12.741  0.1777E-01  0.7405E+00
     12.842  0.1951E-01  0.7425E+00
     12.942  0.2933E-01  0.7454E+00
     13.043  0.4899E-01  0.7503E+00
     13.143  0.7369E-01  0.7577E+00
     13.244  0.9073E-01  0.7669E+00
     13.344  0.9237E-01  0.7761E+00
     13.444  0.8224E-01  0.7844E+00
     13.545  0.6845E-01  0.7913E+00
     13.645  0.5747E-01  0.7970E+00
     13.746  0.5345E-01  0.8024E+00
     13.846  0.5763E-01  0.8082E+00
     13.946  0.7036E-01  0.8153E+00
     14.047  0.8939E-01  0.8242E+00
     14.147  0.1030E+00  0.8346E+00
     14.248  0.9775E-01  0.8444E+00
     14.348  0.7859E-01  0.8523E+00
     14.449  0.6619E-01  0.8589E+00
     14.549  0.7162E-01  0.8661E+00
     14.649  0.8394E-01  0.8745E+00
     14.750  0.8690E-01  0.8833E+00
     14.850  0.7983E-01  0.8913E+00
     14.951  0.7362E-01  0.8987E+00
     15.051  0.7219E-01  0.9059E+00
     15.152  0.6932E-01  0.9129E+00
     15.252  0.6023E-01  0.9189E+00
     15.352  0.4900E-01  0.9239E+00
     15.453  0.4247E-01  0.9281E+00
     15.553  0.4240E-01  0.9324E+00
     15.654  0.4676E-01  0.9371E+00
     15.754  0.5156E-01  0.9423E+00
     15.854  0.5490E-01  0.9478E+00
     15.955  0.6131E-01  0.9539E+00
     16.055  0.6976E-01  0.9609E+00
     16.156  0.6815E-01  0.9678E+00
     16.256  0.5543E-01  0.9733E+00
     16.357  0.4451E-01  0.9778E+00
     16.457  0.4161E-01  0.9820E+00
     16.557  0.4477E-01  0.9865E+00
     16.658  0.4846E-01  0.9914E+00
     16.758  0.4527E-01  0.9959E+00
     16.859  0.3688E-01  0.9996E+00
     16.959  0.3557E-01  0.1003E+01
     17.060  0.4686E-01  0.1008E+01
     17.160  0.5979E-01  0.1014E+01
     17.260  0.6057E-01  0.1020E+01
     17.361  0.4865E-01  0.1025E+01
     17.461  0.3312E-01  0.1028E+01
     17.562  0.2135E-01  0.1030E+01
     17.662  0.1649E-01  0.1032E+01
     17.762  0.1750E-01  0.1034E+01
     17.863  0.1914E-01  0.1036E+01
     17.963  0.1667E-01  0.1037E+01
     18.064  0.1101E-01  0.1038E+01
     18.164  0.6728E-02  0.1039E+01
     18.265  0.7443E-02  0.1040E+01
     18.365  0.1513E-01  0.1041E+01
     18.465  0.2737E-01  0.1044E+01
     18.566  0.3468E-01  0.1048E+01
     18.666  0.3066E-01  0.1051E+01
     18.767  0.2081E-01  0.1053E+01
     18.867  0.1261E-01  0.1054E+01
     18.968  0.7083E-02  0.1055E+01
     19.068  0.3430E-02  0.1055E+01
     19.168  0.2107E-02  0.1055E+01
     19.269  0.3358E-02  0.1056E+01
     19.369  0.6035E-02  0.1056E+01
     19.470  0.8126E-02  0.1057E+01
     19.570  0.8612E-02  0.1058E+01
     19.670  0.7623E-02  0.1059E+01
     19.771  0.6224E-02  0.1059E+01
     19.871  0.6653E-02  0.1060E+01
     19.972  0.9232E-02  0.1061E+01
     20.072  0.1072E-01  0.1062E+01
     20.173  0.8643E-02  0.1063E+01
     20.273  0.4641E-02  0.1063E+01
     20.373  0.1642E-02  0.1064E+01
     20.474  0.4872E-03  0.1064E+01
     20.574  0.6553E-03  0.1064E+01
     20.675  0.1921E-02  0.1064E+01
     20.775  0.3943E-02  0.1064E+01
     20.876  0.5314E-02  0.1065E+01
     20.976  0.4722E-02  0.1065E+01
     21.076  0.2761E-02  0.1065E+01
     21.177  0.1068E-02  0.1066E+01
     21.277  0.3853E-03  0.1066E+01
     21.378  0.6124E-03  0.1066E+01
     21.478  0.1573E-02  0.1066E+01
     21.578  0.2651E-02  0.1066E+01
     21.679  0.2760E-02  0.1066E+01
     21.779  0.1772E-02  0.1067E+01
     21.880  0.7014E-03  0.1067E+01
     21.980  0.1710E-03  0.1067E+01
     22.081  0.2563E-04  0.1067E+01
     22.181  0.2359E-05  0.1067E+01
     22.281  0.1331E-06  0.1067E+01
     22.382  0.4600E-08  0.1067E+01
     22.482  0.9713E-10  0.1067E+01
     22.583  0.1252E-11  0.1067E+01
     22.683  0.9830E-14  0.1067E+01
     22.784  0.4722E-16  0.1067E+01
     22.884  0.0000E+00  0.1067E+01
     22.984  0.0000E+00  0.1067E+01
     23.085  0.0000E+00  0.1067E+01
     23.185  0.0000E+00  0.1067E+01
     23.286  0.0000E+00  0.1067E+01
     23.386  0.0000E+00  0.1067E+01
     23.486  0.0000E+00  0.1067E+01
     23.587  0.0000E+00  0.1067E+01
