    2    2   15    1
  0.1529437E+02  0.3691622E-09  0.3691622E-09  0.3691622E-09  0.5000000E-15
  1.000000000000000E-004
  CAR 
 unknown system                          
      8     56      8
 
  0.6250000E-01  0.6250000E-01  0.6250000E-01  0.1562500E-01
    1       -4.133718   1.000000
    2        4.850965   1.000000
    3        7.070099   1.000000
    4        8.855383   0.850180
    5       12.328441   0.000000
    6       13.988805   0.000000
    7       14.480275   0.000000
    8       16.693581   0.000000
 
  0.1875000E+00  0.6250000E-01  0.6250000E-01  0.3125000E-01
    1       -2.923224   1.000000
    2        4.541929   1.000000
    3        7.324623   1.000000
    4        9.412085   0.001870
    5       11.121933   0.000000
    6       11.352416   0.000000
    7       14.071597   0.000000
    8       14.977449   0.000000
 
  0.3125000E+00  0.6250000E-01  0.6250000E-01  0.3125000E-01
    1       -0.935313   1.000000
    2        4.691949   1.000000
    3        5.724917   1.000000
    4        7.519666   1.000000
    5        8.939352   0.671281
    6       12.050698   0.000000
    7       13.720333   0.000000
    8       14.186481   0.000000
 
  0.4375000E+00  0.6250000E-01  0.6250000E-01  0.1562500E-01
    1        1.371578   1.000000
    2        2.335047   1.000000
    3        5.982767   1.000000
    4        6.480742   1.000000
    5        8.811175   0.911461
    6       10.933494   0.000000
    7       13.586838   0.000000
    8       14.614727   0.000000
 
 -0.6250000E-01  0.6250000E-01  0.6250000E-01  0.7812500E-02
    1       -4.539394   1.000000
    2        5.532150   1.000000
    3        6.242224   1.000000
    4        8.526583   0.999613
    5       11.431042   0.000000
    6       15.441930   0.000000
    7       17.856598   0.000000
    8       18.011902   0.000000
 
  0.1875000E+00  0.1875000E+00  0.6250000E-01  0.1562500E-01
    1       -1.124795   1.000000
    2        4.723656   1.000000
    3        6.567169   1.000000
    4        6.816992   1.000000
    5        9.980544   0.000000
    6       12.152373   0.000000
    7       13.229657   0.000000
    8       13.485083   0.000000
 
  0.3125000E+00  0.1875000E+00  0.6250000E-01  0.3125000E-01
    1        1.318027   1.000000
    2        3.087123   1.000000
    3        4.486592   1.000000
    4        6.045239   1.000000
    5       10.195527   0.000000
    6       11.996666   0.000000
    7       13.082380   0.000000
    8       15.226225   0.000000
 
  0.4375000E+00  0.1875000E+00  0.6250000E-01  0.3125000E-01
    1        0.011776   1.000000
    2        2.941494   1.000000
    3        4.996298   1.000000
    4        7.467306   1.000000
    5        9.483500   0.000332
    6       12.244616   0.000000
    7       14.137937   0.000000
    8       15.135575   0.000000
 
 -0.4375000E+00  0.1875000E+00  0.6250000E-01  0.3125000E-01
    1       -2.148337   1.000000
    2        2.393890   1.000000
    3        7.834900   1.000000
    4        8.985091   0.547771
    5       10.593451   0.000000
    6       12.076789   0.000000
    7       13.237758   0.000000
    8       15.622052   0.000000
 
 -0.3125000E+00  0.1875000E+00  0.6250000E-01  0.1562500E-01
    1       -3.547429   1.000000
    2        2.538419   1.000000
    3        7.592221   1.000000
    4        9.769332   0.000000
    5       12.481372   0.000000
    6       13.860974   0.000000
    7       14.753275   0.000000
    8       15.470484   0.000000
 
 -0.1875000E+00  0.1875000E+00  0.6250000E-01  0.1562500E-01
    1       -4.147779   1.000000
    2        3.409634   1.000000
    3        6.391837   1.000000
    4        9.765650   0.000000
    5       13.381465   0.000000
    6       13.513705   0.000000
    7       16.532124   0.000000
    8       17.223307   0.000000
 
 -0.6250000E-01  0.1875000E+00  0.6250000E-01  0.1562500E-01
    1       -3.938276   1.000000
    2        4.612966   1.000000
    3        5.674998   1.000000
    4       10.339228   0.000000
    5       13.073054   0.000000
    6       13.073664   0.000000
    7       14.067857   0.000000
    8       16.041902   0.000000
 
  0.3125000E+00  0.3125000E+00  0.6250000E-01  0.1562500E-01
    1        1.279310   1.000000
    2        1.357517   1.000000
    3        4.789151   1.000000
    4        7.391324   1.000000
    5       10.269965   0.000000
    6       11.111775   0.000000
    7       15.305511   0.000000
    8       16.088690   0.000000
 
  0.4375000E+00  0.3125000E+00  0.6250000E-01  0.3125000E-01
    1       -0.993820   1.000000
    2        0.528289   1.000000
    3        8.189560   1.000000
    4        8.919673   0.719922
    5       10.411872   0.000000
    6       11.817071   0.000000
    7       13.130613   0.000000
    8       14.557933   0.000000
 
 -0.4375000E+00  0.3125000E+00  0.6250000E-01  0.1562500E-01
    1       -2.574945   1.000000
    2        0.488922   1.000000
    3        8.453270   0.999948
    4       10.712652   0.000000
    5       11.095711   0.000000
    6       13.232621   0.000000
    7       14.064272   0.000000
    8       14.081705   0.000000
 
 -0.3125000E+00  0.3125000E+00  0.6250000E-01  0.1562500E-01
    1       -3.366845   1.000000
    2        1.220693   1.000000
    3        7.105910   1.000000
    4       10.704214   0.000000
    5       11.371237   0.000000
    6       14.857033   0.000000
    7       16.414787   0.000000
    8       16.990698   0.000000
 
 -0.1875000E+00  0.3125000E+00  0.6250000E-01  0.3125000E-01
    1       -3.353181   1.000000
    2        2.682437   1.000000
    3        5.846677   1.000000
    4       11.094648   0.000000
    5       11.669162   0.000000
    6       13.227412   0.000000
    7       15.152523   0.000000
    8       16.036052   0.000000
 
 -0.6250000E-01  0.3125000E+00  0.6250000E-01  0.1562500E-01
    1       -2.535971   1.000000
    2        4.419615   1.000000
    3        5.628116   1.000000
    4        8.554125   0.999231
    5       11.484470   0.000000
    6       13.320726   0.000000
    7       13.799615   0.000000
    8       13.897405   0.000000
 
  0.4375000E+00  0.4375000E+00  0.6250000E-01  0.7812500E-02
    1       -1.225359   1.000000
    2       -1.225356   1.000000
    3        9.614915   0.000007
    4        9.614928   0.000007
    5       12.021504   0.000000
    6       12.021517   0.000000
    7       13.712554   0.000000
    8       13.712566   0.000000
 
 -0.4375000E+00  0.4375000E+00  0.6250000E-01  0.1562500E-01
    1       -2.203237   1.000000
    2       -0.667680   1.000000
    3        8.186871   1.000000
    4        9.620199   0.000006
    5       11.836902   0.000000
    6       13.237183   0.000000
    7       16.604174   0.000000
    8       16.727089   0.000000
 
 -0.3125000E+00  0.4375000E+00  0.6250000E-01  0.3125000E-01
    1       -2.383212   1.000000
    2        0.666807   1.000000
    3        6.721848   1.000000
    4        9.528628   0.000098
    5       11.686441   0.000000
    6       13.395727   0.000000
    7       15.026360   0.000000
    8       16.067471   0.000000
 
 -0.1875000E+00  0.4375000E+00  0.6250000E-01  0.3125000E-01
    1       -1.764834   1.000000
    2        2.705999   1.000000
    3        5.881244   1.000000
    4        7.881430   1.000000
    5       10.139840   0.000000
    6       12.790962   0.000000
    7       14.675147   0.000000
    8       15.719325   0.000000
 
 -0.6250000E-01  0.4375000E+00  0.6250000E-01  0.1562500E-01
    1       -0.369445   1.000000
    2        4.163047   1.000000
    3        5.531556   1.000000
    4        6.184731   1.000000
    5        9.476804   0.000394
    6       11.811302   0.000000
    7       12.395365   0.000000
    8       15.784786   0.000000
 
 -0.4375000E+00 -0.4375000E+00  0.6250000E-01  0.1562500E-01
    1       -1.041501   1.000000
    2       -1.033727   1.000000
    3        7.958448   1.000000
    4        7.982782   1.000000
    5       11.646863   0.000000
    6       14.041753   0.000000
    7       14.869681   0.000000
    8       15.069174   0.000000
 
 -0.3125000E+00 -0.4375000E+00  0.6250000E-01  0.3125000E-01
    1       -0.617431   1.000000
    2        0.889290   1.000000
    3        6.750120   1.000000
    4        7.567881   1.000000
    5        8.646087   0.994085
    6       12.392022   0.000000
    7       15.828992   0.000000
    8       17.093646   0.000000
 
 -0.1875000E+00 -0.4375000E+00  0.6250000E-01  0.3125000E-01
    1        0.560049   1.000000
    2        3.224718   1.000000
    3        4.332646   1.000000
    4        6.708011   1.000000
    5        9.006010   0.488874
    6       10.988670   0.000000
    7       13.473168   0.000000
    8       17.157651   0.000000
 
 -0.6250000E-01 -0.4375000E+00  0.6250000E-01  0.1562500E-01
    1        0.954533   1.000000
    2        2.754426   1.000000
    3        6.571388   1.000000
    4        7.099107   1.000000
    5        7.959400   1.000000
    6       10.522109   0.000000
    7       12.079870   0.000000
    8       16.001652   0.000000
 
 -0.3125000E+00 -0.3125000E+00  0.6250000E-01  0.1562500E-01
    1        1.718945   1.000000
    2        1.928320   1.000000
    3        3.966659   1.000000
    4        7.596241   1.000000
    5        8.073357   1.000000
    6       10.572135   0.000000
    7       15.418673   0.000000
    8       16.179834   0.000000
 
 -0.1875000E+00 -0.3125000E+00  0.6250000E-01  0.3125000E-01
    1        0.631475   1.000000
    2        3.792337   1.000000
    3        5.199605   1.000000
    4        7.425416   1.000000
    5        8.576267   0.998697
    6       10.459535   0.000000
    7       12.111344   0.000000
    8       14.673512   0.000000
 
 -0.6250000E-01 -0.3125000E+00  0.6250000E-01  0.1562500E-01
    1       -1.508624   1.000000
    2        5.979402   1.000000
    3        7.234006   1.000000
    4        7.416152   1.000000
    5        8.737804   0.969162
    6       11.186805   0.000000
    7       12.125235   0.000000
    8       13.876438   0.000000
 
 -0.1875000E+00 -0.1875000E+00  0.6250000E-01  0.1562500E-01
    1       -1.700169   1.000000
    2        6.709659   1.000000
    3        7.289601   1.000000
    4        7.725927   1.000000
    5        9.111901   0.218682
    6       10.924700   0.000000
    7       12.019830   0.000000
    8       12.224839   0.000000
 
 -0.6250000E-01 -0.1875000E+00  0.6250000E-01  0.1562500E-01
    1       -3.312152   1.000000
    2        6.590673   1.000000
    3        7.203346   1.000000
    4        9.285405   0.022561
    5       11.138356   0.000000
    6       11.550785   0.000000
    7       12.484791   0.000000
    8       14.092499   0.000000
 
 -0.6250000E-01 -0.6250000E-01  0.6250000E-01  0.3906250E-02
    1       -4.329658   1.000000
    2        6.894701   1.000000
    3        6.894727   1.000000
    4        7.553053   1.000000
    5       11.160105   0.000000
    6       14.712641   0.000000
    7       14.858440   0.000000
    8       16.841795   0.000000
 
  0.1875000E+00  0.1875000E+00  0.1875000E+00  0.1562500E-01
    1       -0.173003   1.000000
    2        2.797381   1.000000
    3        6.118963   1.000000
    4        6.227764   1.000000
    5       11.031577   0.000000
    6       13.008203   0.000000
    7       14.243314   0.000000
    8       14.606804   0.000000
 
  0.3125000E+00  0.1875000E+00  0.1875000E+00  0.1562500E-01
    1        2.099240   1.000000
    2        2.882638   1.000000
    3        3.959335   1.000000
    4        4.660501   1.000000
    5       11.924193   0.000000
    6       13.920455   0.000000
    7       14.258900   0.000000
    8       14.426409   0.000000
 
 -0.1875000E+00  0.1875000E+00  0.1875000E+00  0.7812500E-02
    1       -3.757383   1.000000
    2        3.291530   1.000000
    3        4.537865   1.000000
    4       11.241869   0.000000
    5       11.953264   0.000000
    6       14.621141   0.000000
    7       16.366731   0.000000
    8       16.791944   0.000000
 
  0.3125000E+00  0.3125000E+00  0.1875000E+00  0.7812500E-02
    1        1.143572   1.000000
    2        1.143577   1.000000
    3        5.998484   1.000000
    4        5.998505   1.000000
    5       12.349130   0.000000
    6       12.349147   0.000000
    7       14.243726   0.000000
    8       14.243757   0.000000
 
 -0.3125000E+00  0.3125000E+00  0.1875000E+00  0.1562500E-01
    1       -2.979931   1.000000
    2        1.542921   1.000000
    3        4.822641   1.000000
    4        9.147079   0.152588
    5       13.254632   0.000000
    6       15.618236   0.000000
    7       16.280953   0.000000
    8       17.458866   0.000000
 
 -0.1875000E+00  0.3125000E+00  0.1875000E+00  0.1562500E-01
    1       -2.771683   1.000000
    2        2.722547   1.000000
    3        4.055396   1.000000
    4        9.267807   0.030117
    5       11.512735   0.000000
    6       14.755250   0.000000
    7       16.577155   0.000000
    8       16.608666   0.000000
 
 -0.4375000E+00  0.4375000E+00  0.1875000E+00  0.1562500E-01
    1       -1.822731   1.000000
    2       -0.301149   1.000000
    3        5.884394   1.000000
    4        7.340736   1.000000
    5       14.183309   0.000000
    6       14.948096   0.000000
    7       16.367699   0.000000
    8       17.027097   0.000000
 
 -0.3125000E+00  0.4375000E+00  0.1875000E+00  0.3125000E-01
    1       -1.810140   1.000000
    2        1.171544   1.000000
    3        4.488602   1.000000
    4        7.342825   1.000000
    5       11.053606   0.000000
    6       16.063817   0.000000
    7       16.696494   0.000000
    8       18.554581   0.000000
 
 -0.1875000E+00  0.4375000E+00  0.1875000E+00  0.1562500E-01
    1       -1.002973   1.000000
    2        2.907621   1.000000
    3        4.293188   1.000000
    4        7.071830   1.000000
    5        8.307303   1.000000
    6       14.095743   0.000000
    7       15.425451   0.000000
    8       17.329809   0.000000
 
 -0.4375000E+00 -0.4375000E+00  0.1875000E+00  0.1562500E-01
    1       -0.489572   1.000000
    2       -0.473385   1.000000
    3        5.708130   1.000000
    4        5.739266   1.000000
    5       10.886366   0.000000
    6       16.321082   0.000000
    7       17.401965   0.000000
    8       17.826974   0.000000
 
 -0.3125000E+00 -0.4375000E+00  0.1875000E+00  0.3125000E-01
    1        0.124533   1.000000
    2        1.573128   1.000000
    3        4.854344   1.000000
    4        6.127907   1.000000
    5        7.148824   1.000000
    6       14.245265   0.000000
    7       17.130898   0.000000
    8       18.475678   0.000000
 
 -0.1875000E+00 -0.4375000E+00  0.1875000E+00  0.1562500E-01
    1        1.430590   1.000000
    2        3.103315   1.000000
    3        4.445957   1.000000
    4        5.241252   1.000000
    5        7.605242   1.000000
    6       12.152048   0.000000
    7       13.367958   0.000000
    8       17.293179   0.000000
 
 -0.3125000E+00 -0.3125000E+00  0.1875000E+00  0.1562500E-01
    1        2.231435   1.000000
    2        2.825140   1.000000
    3        3.764652   1.000000
    4        6.023636   1.000000
    5        6.166716   1.000000
    6       12.375577   0.000000
    7       14.861893   0.000000
    8       15.769931   0.000000
 
 -0.1875000E+00 -0.3125000E+00  0.1875000E+00  0.1562500E-01
    1        0.272863   1.000000
    2        4.843848   1.000000
    3        5.882725   1.000000
    4        6.764214   1.000000
    5        7.677703   1.000000
    6       10.983509   0.000000
    7       11.946863   0.000000
    8       13.605458   0.000000
 
 -0.1875000E+00 -0.1875000E+00  0.1875000E+00  0.3906250E-02
    1       -1.892360   1.000000
    2        7.999579   1.000000
    3        7.999607   1.000000
    4        8.212904   1.000000
    5        8.409532   0.999986
    6       10.063318   0.000000
    7       11.725170   0.000000
    8       11.725196   0.000000
 
 -0.3125000E+00  0.3125000E+00  0.3125000E+00  0.7812500E-02
    1       -2.210769   1.000000
    2        1.756746   1.000000
    3        3.156867   1.000000
    4        7.004249   1.000000
    5       14.527440   0.000000
    6       15.103437   0.000000
    7       17.222151   0.000000
    8       18.880221   0.000000
 
 -0.4375000E+00  0.4375000E+00  0.3125000E+00  0.1562500E-01
    1       -1.071561   1.000000
    2        0.393718   1.000000
    3        3.758319   1.000000
    4        5.186527   1.000000
    5       14.604353   0.000000
    6       14.735399   0.000000
    7       18.472694   0.000000
    8       19.604713   0.000000
 
 -0.3125000E+00  0.4375000E+00  0.3125000E+00  0.1562500E-01
    1       -0.866938   1.000000
    2        1.568706   1.000000
    3        2.996489   1.000000
    4        5.372086   1.000000
    5       10.546699   0.000000
    6       17.672178   0.000000
    7       18.764923   0.000000
    8       19.384664   0.000000
 
 -0.4375000E+00 -0.4375000E+00  0.3125000E+00  0.1562500E-01
    1        0.390696   1.000000
    2        0.417369   1.000000
    3        3.762150   1.000000
    4        3.781357   1.000000
    5       10.373774   0.000000
    6       17.853987   0.000000
    7       19.963266   0.000000
    8       20.078516   0.000000
 
 -0.3125000E+00 -0.4375000E+00  0.3125000E+00  0.1562500E-01
    1        1.188097   1.000000
    2        2.144033   1.000000
    3        3.591028   1.000000
    4        4.506956   1.000000
    5        6.630828   1.000000
    6       16.039720   0.000000
    7       17.219654   0.000000
    8       18.570782   0.000000
 
 -0.3125000E+00 -0.3125000E+00  0.3125000E+00  0.3906250E-02
    1        2.391042   1.000000
    2        3.630695   1.000000
    3        4.322267   1.000000
    4        4.909001   1.000000
    5        4.909007   1.000000
    6       14.275500   0.000000
    7       14.666657   0.000000
    8       14.666665   0.000000
 
 -0.4375000E+00  0.4375000E+00  0.4375000E+00  0.7812500E-02
    1        0.007763   1.000000
    2        0.980874   1.000000
    3        2.436867   1.000000
    4        3.394485   1.000000
    5       14.420850   0.000000
    6       14.447789   0.000000
    7       20.901144   0.000000
    8       21.586884   0.000000
 
 -0.4375000E+00 -0.4375000E+00  0.4375000E+00  0.3906250E-02
    1        1.157572   1.000000
    2        1.203349   1.000000
    3        2.636037   1.000000
    4        2.636042   1.000000
    5       10.200174   0.000000
    6       18.237255   0.000000
    7       20.792912   0.000000
    8       20.792915   0.000000
