<?xml version="1.0" encoding="ISO-8859-1"?>
<modeling>
 <generator>
  <i name="program" type="string">vasp </i>
  <i name="version" type="string">5.4.4.18Apr17-6-g9f103f2a35  </i>
  <i name="subversion" type="string">(build Dec 09 2018 21:25:21) complex            parallel </i>
  <i name="platform" type="string">IFC18.0.1.163_CrayMPICH7.7.0_MKL18.0.1.163 </i>
  <i name="date" type="string">2019 03 20 </i>
  <i name="time" type="string">09:08:50 </i>
 </generator>
 <incar>
  <i type="string" name="PREC">normal</i>
  <i type="int" name="IBRION">     2</i>
  <i name="EDIFF">      0.00040000</i>
  <i name="EDIFFG">     -0.01000000</i>
  <i type="int" name="NSW">    15</i>
  <i type="int" name="ISIF">     3</i>
  <i name="ENCUT">    150.00000000</i>
  <i type="int" name="NBANDS">     8</i>
  <i type="logical" name="LREAL"> F  </i>
  <i type="int" name="ISMEAR">     0</i>
  <i name="SIGMA">      0.20000000</i>
  <v type="int" name="KPOINT_BSE">    -1     0     0     0</v>
 </incar>
 <structure name="primitive_cell" >
  <crystal>
   <varray name="basis" >
    <v>      -2.45000000       2.45000000       1.27400000 </v>
    <v>       2.45000000      -2.45000000       1.27400000 </v>
    <v>       2.45000000       2.45000000      -1.27400000 </v>
   </varray>
   <i name="volume">     30.58874000 </i>
   <varray name="rec_basis" >
    <v>       0.00000000       0.20408163       0.39246468 </v>
    <v>       0.20408163       0.00000000       0.39246468 </v>
    <v>       0.20408163       0.20408163      -0.00000000 </v>
   </varray>
  </crystal>
  <varray name="positions" >
   <v>       0.25000000      -0.25000000      -0.50000000 </v>
   <v>       0.00000000       0.00000000       0.00000000 </v>
  </varray>
 </structure>
 <varray name="primitive_index" >
  <v type="int" >        1 </v>
  <v type="int" >        2 </v>
 </varray>
 <kpoints>
  <generation param="Monkhorst-Pack">
   <v type="int" name="divisions">       8        8        8 </v>
   <v name="usershift">      0.00000000       0.00000000       0.00000000 </v>
   <v name="genvec1">      0.12500000       0.00000000      -0.00000000 </v>
   <v name="genvec2">      0.00000000       0.12500000      -0.00000000 </v>
   <v name="genvec3">      0.00000000      -0.00000000       0.12500000 </v>
   <v name="shift">      0.50000000       0.50000000       0.50000000 </v>
  </generation>
  <varray name="kpointlist" >
   <v>       0.06250000       0.06250000       0.06250000 </v>
   <v>       0.18750000       0.06250000       0.06250000 </v>
   <v>       0.31250000       0.06250000       0.06250000 </v>
   <v>       0.43750000       0.06250000       0.06250000 </v>
   <v>      -0.06250000       0.06250000       0.06250000 </v>
   <v>       0.18750000       0.18750000       0.06250000 </v>
   <v>       0.31250000       0.18750000       0.06250000 </v>
   <v>       0.43750000       0.18750000       0.06250000 </v>
   <v>      -0.43750000       0.18750000       0.06250000 </v>
   <v>      -0.31250000       0.18750000       0.06250000 </v>
   <v>      -0.18750000       0.18750000       0.06250000 </v>
   <v>      -0.06250000       0.18750000       0.06250000 </v>
   <v>       0.31250000       0.31250000       0.06250000 </v>
   <v>       0.43750000       0.31250000       0.06250000 </v>
   <v>      -0.43750000       0.31250000       0.06250000 </v>
   <v>      -0.31250000       0.31250000       0.06250000 </v>
   <v>      -0.18750000       0.31250000       0.06250000 </v>
   <v>      -0.06250000       0.31250000       0.06250000 </v>
   <v>       0.43750000       0.43750000       0.06250000 </v>
   <v>      -0.43750000       0.43750000       0.06250000 </v>
   <v>      -0.31250000       0.43750000       0.06250000 </v>
   <v>      -0.18750000       0.43750000       0.06250000 </v>
   <v>      -0.06250000       0.43750000       0.06250000 </v>
   <v>      -0.43750000      -0.43750000       0.06250000 </v>
   <v>      -0.31250000      -0.43750000       0.06250000 </v>
   <v>      -0.18750000      -0.43750000       0.06250000 </v>
   <v>      -0.06250000      -0.43750000       0.06250000 </v>
   <v>      -0.31250000      -0.31250000       0.06250000 </v>
   <v>      -0.18750000      -0.31250000       0.06250000 </v>
   <v>      -0.06250000      -0.31250000       0.06250000 </v>
   <v>      -0.18750000      -0.18750000       0.06250000 </v>
   <v>      -0.06250000      -0.18750000       0.06250000 </v>
   <v>      -0.06250000      -0.06250000       0.06250000 </v>
   <v>       0.18750000       0.18750000       0.18750000 </v>
   <v>       0.31250000       0.18750000       0.18750000 </v>
   <v>      -0.18750000       0.18750000       0.18750000 </v>
   <v>       0.31250000       0.31250000       0.18750000 </v>
   <v>      -0.31250000       0.31250000       0.18750000 </v>
   <v>      -0.18750000       0.31250000       0.18750000 </v>
   <v>      -0.43750000       0.43750000       0.18750000 </v>
   <v>      -0.31250000       0.43750000       0.18750000 </v>
   <v>      -0.18750000       0.43750000       0.18750000 </v>
   <v>      -0.43750000      -0.43750000       0.18750000 </v>
   <v>      -0.31250000      -0.43750000       0.18750000 </v>
   <v>      -0.18750000      -0.43750000       0.18750000 </v>
   <v>      -0.31250000      -0.31250000       0.18750000 </v>
   <v>      -0.18750000      -0.31250000       0.18750000 </v>
   <v>      -0.18750000      -0.18750000       0.18750000 </v>
   <v>      -0.31250000       0.31250000       0.31250000 </v>
   <v>      -0.43750000       0.43750000       0.31250000 </v>
   <v>      -0.31250000       0.43750000       0.31250000 </v>
   <v>      -0.43750000      -0.43750000       0.31250000 </v>
   <v>      -0.31250000      -0.43750000       0.31250000 </v>
   <v>      -0.31250000      -0.31250000       0.31250000 </v>
   <v>      -0.43750000       0.43750000       0.43750000 </v>
   <v>      -0.43750000      -0.43750000       0.43750000 </v>
  </varray>
  <varray name="weights" >
   <v>       0.01562500 </v>
   <v>       0.03125000 </v>
   <v>       0.03125000 </v>
   <v>       0.01562500 </v>
   <v>       0.00781250 </v>
   <v>       0.01562500 </v>
   <v>       0.03125000 </v>
   <v>       0.03125000 </v>
   <v>       0.03125000 </v>
   <v>       0.01562500 </v>
   <v>       0.01562500 </v>
   <v>       0.01562500 </v>
   <v>       0.01562500 </v>
   <v>       0.03125000 </v>
   <v>       0.01562500 </v>
   <v>       0.01562500 </v>
   <v>       0.03125000 </v>
   <v>       0.01562500 </v>
   <v>       0.00781250 </v>
   <v>       0.01562500 </v>
   <v>       0.03125000 </v>
   <v>       0.03125000 </v>
   <v>       0.01562500 </v>
   <v>       0.01562500 </v>
   <v>       0.03125000 </v>
   <v>       0.03125000 </v>
   <v>       0.01562500 </v>
   <v>       0.01562500 </v>
   <v>       0.03125000 </v>
   <v>       0.01562500 </v>
   <v>       0.01562500 </v>
   <v>       0.01562500 </v>
   <v>       0.00390625 </v>
   <v>       0.01562500 </v>
   <v>       0.01562500 </v>
   <v>       0.00781250 </v>
   <v>       0.00781250 </v>
   <v>       0.01562500 </v>
   <v>       0.01562500 </v>
   <v>       0.01562500 </v>
   <v>       0.03125000 </v>
   <v>       0.01562500 </v>
   <v>       0.01562500 </v>
   <v>       0.03125000 </v>
   <v>       0.01562500 </v>
   <v>       0.01562500 </v>
   <v>       0.01562500 </v>
   <v>       0.00390625 </v>
   <v>       0.00781250 </v>
   <v>       0.01562500 </v>
   <v>       0.01562500 </v>
   <v>       0.01562500 </v>
   <v>       0.01562500 </v>
   <v>       0.00390625 </v>
   <v>       0.00781250 </v>
   <v>       0.00390625 </v>
  </varray>
 </kpoints>
 <parameters>
  <separator name="general" >
   <i type="string" name="SYSTEM">unknown system</i>
   <i type="logical" name="LCOMPAT"> F  </i>
  </separator>
  <separator name="electronic" >
   <i type="string" name="PREC">normal</i>
   <i name="ENMAX">    150.00000000</i>
   <i name="ENAUG">    322.06900000</i>
   <i name="EDIFF">      0.00040000</i>
   <i type="int" name="IALGO">    38</i>
   <i type="int" name="IWAVPR">    11</i>
   <i type="int" name="NBANDS">     8</i>
   <i name="NELECT">      8.00000000</i>
   <i type="int" name="TURBO">     0</i>
   <i type="int" name="IRESTART">     0</i>
   <i type="int" name="NREBOOT">     0</i>
   <i type="int" name="NMIN">     0</i>
   <i name="EREF">      0.00000000</i>
   <separator name="electronic smearing" >
    <i type="int" name="ISMEAR">     0</i>
    <i name="SIGMA">      0.20000000</i>
    <i name="KSPACING">      0.50000000</i>
    <i type="logical" name="KGAMMA"> T  </i>
   </separator>
   <separator name="electronic projectors" >
    <i type="logical" name="LREAL"> F  </i>
    <v name="ROPT">      0.00000000</v>
    <i type="int" name="LMAXPAW">  -100</i>
    <i type="int" name="LMAXMIX">     2</i>
    <i type="logical" name="NLSPLINE"> F  </i>
   </separator>
   <separator name="electronic startup" >
    <i type="int" name="ISTART">     0</i>
    <i type="int" name="ICHARG">     2</i>
    <i type="int" name="INIWAV">     1</i>
   </separator>
   <separator name="electronic spin" >
    <i type="int" name="ISPIN">     1</i>
    <i type="logical" name="LNONCOLLINEAR"> F  </i>
    <v name="MAGMOM">      1.00000000      1.00000000</v>
    <i name="NUPDOWN">     -1.00000000</i>
    <i type="logical" name="LSORBIT"> F  </i>
    <v name="SAXIS">      0.00000000      0.00000000      1.00000000</v>
    <i type="logical" name="LSPIRAL"> F  </i>
    <v name="QSPIRAL">      0.00000000      0.00000000      0.00000000</v>
    <i type="logical" name="LZEROZ"> F  </i>
   </separator>
   <separator name="electronic exchange-correlation" >
    <i type="logical" name="LASPH"> F  </i>
    <i type="logical" name="LMETAGGA"> F  </i>
   </separator>
   <separator name="electronic convergence" >
    <i type="int" name="NELM">    60</i>
    <i type="int" name="NELMDL">    -5</i>
    <i type="int" name="NELMIN">     2</i>
    <i name="ENINI">    150.00000000</i>
    <separator name="electronic convergence detail" >
     <i type="logical" name="LDIAG"> T  </i>
     <i type="logical" name="LSUBROT"> F  </i>
     <i name="WEIMIN">      0.00100000</i>
     <i name="EBREAK">      0.00001250</i>
     <i name="DEPER">      0.30000000</i>
     <i type="int" name="NRMM">     4</i>
     <i name="TIME">      0.40000000</i>
    </separator>
   </separator>
   <separator name="electronic mixer" >
    <i name="AMIX">      0.40000000</i>
    <i name="BMIX">      1.00000000</i>
    <i name="AMIN">      0.10000000</i>
    <i name="AMIX_MAG">      1.60000000</i>
    <i name="BMIX_MAG">      1.00000000</i>
    <separator name="electronic mixer details" >
     <i type="int" name="IMIX">     4</i>
     <i type="logical" name="MIXFIRST"> F  </i>
     <i type="int" name="MAXMIX">   -45</i>
     <i name="WC">    100.00000000</i>
     <i type="int" name="INIMIX">     1</i>
     <i type="int" name="MIXPRE">     1</i>
     <i type="int" name="MREMOVE">     5</i>
    </separator>
   </separator>
   <separator name="electronic dipolcorrection" >
    <i type="logical" name="LDIPOL"> F  </i>
    <i type="logical" name="LMONO"> F  </i>
    <i type="int" name="IDIPOL">     0</i>
    <i name="EPSILON">      1.00000000</i>
    <v name="DIPOL">   -100.00000000   -100.00000000   -100.00000000</v>
    <i name="EFIELD">      0.00000000</i>
   </separator>
  </separator>
  <separator name="grids" >
   <i type="int" name="NGX">    12</i>
   <i type="int" name="NGY">    12</i>
   <i type="int" name="NGZ">    12</i>
   <i type="int" name="NGXF">    24</i>
   <i type="int" name="NGYF">    24</i>
   <i type="int" name="NGZF">    24</i>
   <i type="logical" name="ADDGRID"> F  </i>
  </separator>
  <separator name="ionic" >
   <i type="int" name="NSW">    15</i>
   <i type="int" name="IBRION">     2</i>
   <i type="int" name="MDALGO">     0</i>
   <i type="int" name="ISIF">     3</i>
   <i name="PSTRESS">      0.00000000</i>
   <i name="EDIFFG">     -0.01000000</i>
   <i type="int" name="NFREE">     1</i>
   <i name="POTIM">      0.50000000</i>
   <i name="SMASS">     -3.00000000</i>
   <i name="SCALEE">      1.00000000</i>
  </separator>
  <separator name="ionic md" >
   <i name="TEBEG">      0.00010000</i>
   <i name="TEEND">      0.00010000</i>
   <i type="int" name="NBLOCK">     1</i>
   <i type="int" name="KBLOCK">    15</i>
   <i type="int" name="NPACO">   256</i>
   <i name="APACO">     16.00000000</i>
  </separator>
  <separator name="symmetry" >
   <i type="int" name="ISYM">     2</i>
   <i name="SYMPREC">      0.00001000</i>
  </separator>
  <separator name="dos" >
   <i type="int" name="LORBIT">     0</i>
   <v name="RWIGS">     -1.00000000</v>
   <i type="int" name="NEDOS">   301</i>
   <i name="EMIN">     10.00000000</i>
   <i name="EMAX">    -10.00000000</i>
   <i name="EFERMI">      0.00000000</i>
  </separator>
  <separator name="writing" >
   <i type="int" name="NWRITE">     2</i>
   <i type="logical" name="LWAVE"> T  </i>
   <i type="logical" name="LDOWNSAMPLE"> F  </i>
   <i type="logical" name="LCHARG"> T  </i>
   <i type="logical" name="LPARD"> F  </i>
   <i type="logical" name="LVTOT"> F  </i>
   <i type="logical" name="LVHAR"> F  </i>
   <i type="logical" name="LELF"> F  </i>
   <i type="logical" name="LOPTICS"> F  </i>
   <v name="STM">      0.00000000      0.00000000      0.00000000      0.00000000      0.00000000      0.00000000      0.00000000</v>
  </separator>
  <separator name="performance" >
   <i type="int" name="NPAR">     8</i>
   <i type="int" name="NSIM">     4</i>
   <i type="int" name="NBLK">    -1</i>
   <i type="logical" name="LPLANE"> T  </i>
   <i type="logical" name="LSCALAPACK"> T  </i>
   <i type="logical" name="LSCAAWARE"> F  </i>
   <i type="logical" name="LSCALU"> F  </i>
   <i type="logical" name="LASYNC"> F  </i>
   <i type="logical" name="LORBITALREAL"> F  </i>
  </separator>
  <separator name="miscellaneous" >
   <i type="int" name="IDIOT">     3</i>
   <i type="int" name="ISPECIAL">     0</i>
   <i type="logical" name="LMUSIC"> F  </i>
   <v name="POMASS">     28.08500000</v>
   <v name="DARWINR">      0.00000000</v>
   <v name="DARWINV">      1.00000000</v>
   <i type="logical" name="LCORR"> T  </i>
  </separator>
  <i type="logical" name="GGA_COMPAT"> T  </i>
  <i type="logical" name="LBERRY"> F  </i>
  <i type="int" name="ICORELEVEL">     0</i>
  <i type="logical" name="LDAU"> F  </i>
  <i type="int" name="I_CONSTRAINED_M">     0</i>
  <separator name="electronic exchange-correlation" >
   <i type="string" name="GGA">--</i>
   <i type="int" name="VOSKOWN">     0</i>
   <i type="logical" name="LHFCALC"> F  </i>
   <i type="string" name="PRECFOCK"></i>
   <i type="logical" name="LSYMGRAD"> F  </i>
   <i type="logical" name="LHFONE"> F  </i>
   <i type="logical" name="LRHFCALC"> F  </i>
   <i type="logical" name="LTHOMAS"> F  </i>
   <i type="logical" name="LMODELHF"> F  </i>
   <i name="ENCUT4O">     -1.00000000</i>
   <i type="int" name="EXXOEP">     0</i>
   <i type="int" name="FOURORBIT">     0</i>
   <i name="AEXX">      0.00000000</i>
   <i name="HFALPHA">      0.00000000</i>
   <i name="MCALPHA">      0.00000000</i>
   <i name="ALDAX">      1.00000000</i>
   <i name="AGGAX">      1.00000000</i>
   <i name="ALDAC">      1.00000000</i>
   <i name="AGGAC">      1.00000000</i>
   <i type="int" name="NKREDX">     1</i>
   <i type="int" name="NKREDY">     1</i>
   <i type="int" name="NKREDZ">     1</i>
   <i type="logical" name="SHIFTRED"> F  </i>
   <i type="logical" name="ODDONLY"> F  </i>
   <i type="logical" name="EVENONLY"> F  </i>
   <i type="int" name="LMAXFOCK">     0</i>
   <i type="int" name="NMAXFOCKAE">     0</i>
   <i type="logical" name="LFOCKAEDFT"> F  </i>
   <i name="HFSCREEN">      0.00000000</i>
   <i name="HFSCREENC">      0.00000000</i>
   <i type="int" name="NBANDSGWLOW">     0</i>
  </separator>
  <separator name="vdW DFT" >
   <i type="logical" name="LUSE_VDW"> F  </i>
   <i name="Zab_VDW">     -0.84910000</i>
   <i name="PARAM1">      0.12340000</i>
   <i name="PARAM2">      1.00000000</i>
   <i name="PARAM3">      0.00000000</i>
  </separator>
  <separator name="model GW" >
   <i type="int" name="MODEL_GW">     0</i>
   <i name="MODEL_EPS0">      9.17662200</i>
   <i name="MODEL_ALPHA">      1.00000000</i>
  </separator>
  <separator name="linear response parameters" >
   <i type="logical" name="LEPSILON"> F  </i>
   <i type="logical" name="LRPA"> F  </i>
   <i type="logical" name="LNABLA"> F  </i>
   <i type="logical" name="LVEL"> F  </i>
   <i type="int" name="KINTER">     0</i>
   <i name="CSHIFT">      0.10000000</i>
   <i name="OMEGAMAX">     -1.00000000</i>
   <i name="DEG_THRESHOLD">      0.00200000</i>
   <i name="RTIME">     -0.10000000</i>
   <i name="WPLASMAI">      0.00000000</i>
   <v name="DFIELD">      0.00000000      0.00000000      0.00000000</v>
   <v name="WPLASMA">      0.00000000      0.00000000      0.00000000      0.00000000      0.00000000      0.00000000      0.00000000      0.00000000      0.00000000</v>
  </separator>
  <separator name="orbital magnetization" >
   <i type="logical" name="NUCIND"> F  </i>
   <v name="MAGPOS">      0.00000000      0.00000000      0.00000000</v>
   <i type="logical" name="LNICSALL"> T  </i>
   <i type="logical" name="ORBITALMAG"> F  </i>
   <i type="logical" name="LMAGBLOCH"> F  </i>
   <i type="logical" name="LCHIMAG"> F  </i>
   <i type="logical" name="LGAUGE"> T  </i>
   <i type="int" name="MAGATOM">     0</i>
   <v name="MAGDIPOL">      0.00000000      0.00000000      0.00000000</v>
   <v name="AVECCONST">      0.00000000      0.00000000      0.00000000</v>
  </separator>
  <separator name="response functions" >
   <i type="logical" name="LADDER"> F  </i>
   <i type="logical" name="LRPAFORCE"> F  </i>
   <i type="logical" name="LFXC"> F  </i>
   <i type="logical" name="LHARTREE"> T  </i>
   <i type="int" name="IBSE">     0</i>
   <v type="int" name="KPOINT">    -1     0     0     0</v>
   <i type="logical" name="LTCTE"> F  </i>
   <i type="logical" name="LTETE"> F  </i>
   <i type="logical" name="LTRIPLET"> F  </i>
   <i type="logical" name="LFXCEPS"> F  </i>
   <i type="logical" name="LFXHEG"> F  </i>
   <i type="int" name="NATURALO">     2</i>
   <i type="logical" name="L2ORDER"> F  </i>
   <i type="logical" name="LMP2LT"> F  </i>
   <i type="logical" name="LUSEW"> F  </i>
   <i name="ENCUTGW">     -2.00000000</i>
   <i name="ENCUTGWSOFT">     -2.00000000</i>
   <i name="ENCUTLF">     -1.00000000</i>
   <i type="int" name="LMAXMP2">    -1</i>
   <i name="SCISSOR">      0.00000000</i>
   <i type="int" name="NOMEGA">     0</i>
   <i type="int" name="NOMEGAR">     0</i>
   <i type="int" name="NBANDSGW">    -1</i>
   <i type="int" name="NBANDSO">    -1</i>
   <i type="int" name="NBANDSV">    -1</i>
   <i type="int" name="NELM">     1</i>
   <i type="int" name="NELMHF">     1</i>
   <i type="int" name="DIM">     3</i>
   <i type="int" name="ANTIRES">     0</i>
   <i name="OMEGAMAX">    -30.00000000</i>
   <i name="OMEGAMIN">    -30.00000000</i>
   <i name="OMEGATL">   -200.00000000</i>
   <i type="int" name="OMEGAGRID">   140</i>
   <i name="CSHIFT">     -0.10000000</i>
   <i type="logical" name="SELFENERGY"> F  </i>
   <i type="logical" name="LSPECTRAL"> F  </i>
   <i type="logical" name="LSPECTRALGW"> F  </i>
   <i type="logical" name="LSINGLES"> F  </i>
   <i type="logical" name="LFERMIGW"> F  </i>
   <i type="logical" name="ODDONLYGW"> F  </i>
   <i type="logical" name="EVENONLYGW"> F  </i>
   <i type="int" name="NKREDLFX">     1</i>
   <i type="int" name="NKREDLFY">     1</i>
   <i type="int" name="NKREDLFZ">     1</i>
   <i type="int" name="MAXMEM">  2800</i>
   <i type="int" name="TELESCOPE">     0</i>
   <i type="int" name="TAUPAR">     1</i>
   <i type="int" name="OMEGAPAR">    -1</i>
   <i name="LAMBDA">      1.00000000</i>
  </separator>
  <separator name="External order field" >
   <i name="OFIELD_KAPPA">      0.00000000</i>
   <v name="OFIELD_K">      0.00000000      0.00000000      0.00000000</v>
   <i name="OFIELD_Q6_NEAR">      0.00000000</i>
   <i name="OFIELD_Q6_FAR">      0.00000000</i>
   <i name="OFIELD_A">      0.00000000</i>
  </separator>
 </parameters>
 <atominfo>
  <atoms>       2 </atoms>
  <types>       1 </types>
  <array name="atoms" >
   <dimension dim="1">ion</dimension>
   <field type="string">element</field>
   <field type="int">atomtype</field>
   <set>
    <rc><c>Si</c><c>   1</c></rc>
    <rc><c>Si</c><c>   1</c></rc>
   </set>
  </array>
  <array name="atomtypes" >
   <dimension dim="1">type</dimension>
   <field type="int">atomspertype</field>
   <field type="string">element</field>
   <field>mass</field>
   <field>valence</field>
   <field type="string">pseudopotential</field>
   <set>
    <rc><c>   2</c><c>Si</c><c>     28.08500000</c><c>      4.00000000</c><c> PAW_PBE Si 05Jan2001                   </c></rc>
   </set>
  </array>
 </atominfo>
 <structure name="initialpos" >
  <crystal>
   <varray name="basis" >
    <v>      -2.45000000       2.45000000       1.27400000 </v>
    <v>       2.45000000      -2.45000000       1.27400000 </v>
    <v>       2.45000000       2.45000000      -1.27400000 </v>
   </varray>
   <i name="volume">     30.58874000 </i>
   <varray name="rec_basis" >
    <v>       0.00000000       0.20408163       0.39246468 </v>
    <v>       0.20408163       0.00000000       0.39246468 </v>
    <v>       0.20408163       0.20408163      -0.00000000 </v>
   </varray>
  </crystal>
  <varray name="positions" >
   <v>       0.25000000       0.75000000       0.50000000 </v>
   <v>       0.00000000       0.00000000       0.00000000 </v>
  </varray>
 </structure>
 <calculation>
  <scstep>
   <time name="dav">    0.41    0.42</time>
   <time name="total">    0.45    0.47</time>
   <energy>
    <i name="alphaZ">      4.40202223 </i>
    <i name="ewald">   -265.18101312 </i>
    <i name="hartreedc">     -2.30415367 </i>
    <i name="XCdc">    -17.81530915 </i>
    <i name="pawpsdc">     65.95520812 </i>
    <i name="pawaedc">    -30.76852678 </i>
    <i name="eentropy">     -0.01880474 </i>
    <i name="bandstr">     35.01508273 </i>
    <i name="atom">    206.09183643 </i>
    <i name="e_fr_energy">     -4.62365796 </i>
    <i name="e_wo_entrp">     -4.60485321 </i>
    <i name="e_0_energy">     -4.61425558 </i>
   </energy>
  </scstep>
  <scstep>
   <time name="dav">    0.64    0.65</time>
   <time name="total">    0.64    0.70</time>
   <energy>
    <i name="e_fr_energy">    -10.05817126 </i>
    <i name="e_wo_entrp">    -10.03663455 </i>
    <i name="e_0_energy">    -10.04740291 </i>
   </energy>
  </scstep>
  <scstep>
   <time name="dav">    0.47    0.48</time>
   <time name="total">    0.48    0.48</time>
   <energy>
    <i name="e_fr_energy">    -10.09420212 </i>
    <i name="e_wo_entrp">    -10.07259282 </i>
    <i name="e_0_energy">    -10.08339747 </i>
   </energy>
  </scstep>
  <scstep>
   <time name="dav">    0.68    0.69</time>
   <time name="total">    0.68    0.69</time>
   <energy>
    <i name="e_fr_energy">    -10.09423419 </i>
    <i name="e_wo_entrp">    -10.07262474 </i>
    <i name="e_0_energy">    -10.08342947 </i>
   </energy>
  </scstep>
  <scstep>
   <time name="dav">    0.44    0.45</time>
   <time name="total">    0.46    0.46</time>
   <energy>
    <i name="e_fr_energy">    -10.09423421 </i>
    <i name="e_wo_entrp">    -10.07262476 </i>
    <i name="e_0_energy">    -10.08342949 </i>
   </energy>
  </scstep>
  <scstep>
   <time name="dav">    0.48    0.48</time>
   <time name="total">    0.52    0.52</time>
   <energy>
    <i name="e_fr_energy">    -10.08542931 </i>
    <i name="e_wo_entrp">    -10.06378168 </i>
    <i name="e_0_energy">    -10.07460549 </i>
   </energy>
  </scstep>
  <scstep>
   <time name="dav">    0.44    0.44</time>
   <time name="total">    0.47    0.48</time>
   <energy>
    <i name="e_fr_energy">    -10.07867492 </i>
    <i name="e_wo_entrp">    -10.05697462 </i>
    <i name="e_0_energy">    -10.06782477 </i>
   </energy>
  </scstep>
  <scstep>
   <time name="dav">    0.25    0.25</time>
   <time name="total">    0.28    0.29</time>
   <energy>
    <i name="alphaZ">      4.40202223 </i>
    <i name="ewald">   -265.18101312 </i>
    <i name="hartreedc">     -2.49280806 </i>
    <i name="XCdc">    -17.54135705 </i>
    <i name="pawpsdc">     72.30873478 </i>
    <i name="pawaedc">    -37.23314274 </i>
    <i name="eentropy">     -0.02170259 </i>
    <i name="bandstr">     29.58877812 </i>
    <i name="atom">    206.09183643 </i>
    <i name="e_fr_energy">    -10.07865200 </i>
    <i name="e_wo_entrp">    -10.05694941 </i>
    <i name="e_0_energy">    -10.06780070 </i>
   </energy>
  </scstep>
  <structure>
   <crystal>
    <varray name="basis" >
     <v>      -2.45000000       2.45000000       1.27400000 </v>
     <v>       2.45000000      -2.45000000       1.27400000 </v>
     <v>       2.45000000       2.45000000      -1.27400000 </v>
    </varray>
    <i name="volume">     30.58874000 </i>
    <varray name="rec_basis" >
     <v>       0.00000000       0.20408163       0.39246468 </v>
     <v>       0.20408163       0.00000000       0.39246468 </v>
     <v>       0.20408163       0.20408163      -0.00000000 </v>
    </varray>
   </crystal>
   <varray name="positions" >
    <v>       0.25000000       0.75000000       0.50000000 </v>
    <v>       0.00000000       0.00000000       0.00000000 </v>
   </varray>
  </structure>
  <varray name="forces" >
   <v>      -0.00000000      -0.00000000      -0.00000000 </v>
   <v>       0.00000000       0.00000000       0.00000000 </v>
  </varray>
  <varray name="stress" >
   <v>     -27.58589544       0.00000000       0.00000000 </v>
   <v>      -0.00000000     -27.58589544       0.00000000 </v>
   <v>       0.00000000       0.00000000      75.60927515 </v>
  </varray>
  <energy>
   <i name="e_fr_energy">    -10.07865200 </i>
   <i name="e_wo_entrp">    -10.06780070 </i>
   <i name="e_0_energy">     -0.02170259 </i>
  </energy>
  <time name="totalsc">    4.53    5.24</time>
 </calculation>
 <calculation>
  <scstep>
   <time name="dav">    0.57    0.57</time>
   <time name="total">    0.61    0.62</time>
   <energy>
    <i name="alphaZ">      4.36407979 </i>
    <i name="ewald">   -264.53329758 </i>
    <i name="hartreedc">     -2.46412931 </i>
    <i name="XCdc">    -17.58578396 </i>
    <i name="pawpsdc">     72.31676168 </i>
    <i name="pawaedc">    -37.24168627 </i>
    <i name="eentropy">     -0.02098035 </i>
    <i name="bandstr">     28.92028773 </i>
    <i name="atom">    206.09183643 </i>
    <i name="e_fr_energy">    -10.15291184 </i>
    <i name="e_wo_entrp">    -10.13193149 </i>
    <i name="e_0_energy">    -10.14242167 </i>
   </energy>
  </scstep>
  <scstep>
   <time name="dav">    0.49    0.49</time>
   <time name="total">    0.52    0.54</time>
   <energy>
    <i name="e_fr_energy">    -10.13674711 </i>
    <i name="e_wo_entrp">    -10.11568672 </i>
    <i name="e_0_energy">    -10.12621692 </i>
   </energy>
  </scstep>
  <scstep>
   <time name="dav">    0.52    0.52</time>
   <time name="total">    0.56    0.57</time>
   <energy>
    <i name="e_fr_energy">    -10.12896247 </i>
    <i name="e_wo_entrp">    -10.10782120 </i>
    <i name="e_0_energy">    -10.11839183 </i>
   </energy>
  </scstep>
  <scstep>
   <time name="dav">    0.36    0.36</time>
   <time name="total">    0.38    0.39</time>
   <energy>
    <i name="alphaZ">      4.36407979 </i>
    <i name="ewald">   -264.53329758 </i>
    <i name="hartreedc">     -2.49777719 </i>
    <i name="XCdc">    -17.58669791 </i>
    <i name="pawpsdc">     72.23864294 </i>
    <i name="pawaedc">    -37.16183433 </i>
    <i name="eentropy">     -0.02113936 </i>
    <i name="bandstr">     28.97717549 </i>
    <i name="atom">    206.09183643 </i>
    <i name="e_fr_energy">    -10.12901172 </i>
    <i name="e_wo_entrp">    -10.10787236 </i>
    <i name="e_0_energy">    -10.11844204 </i>
   </energy>
  </scstep>
  <structure>
   <crystal>
    <varray name="basis" >
     <v>      -2.41887529       2.41887529       1.31836053 </v>
     <v>       2.41887529      -2.41887529       1.31836053 </v>
     <v>       2.41887529       2.41887529      -1.31836053 </v>
    </varray>
    <i name="volume">     30.85468645 </i>
    <varray name="rec_basis" >
     <v>      -0.00000000       0.20670764       0.37925893 </v>
     <v>       0.20670764      -0.00000000       0.37925893 </v>
     <v>       0.20670764       0.20670764       0.00000000 </v>
    </varray>
   </crystal>
   <varray name="positions" >
    <v>       0.25000000       0.75000000       0.50000000 </v>
    <v>       0.00000000       0.00000000       0.00000000 </v>
   </varray>
  </structure>
  <varray name="forces" >
   <v>      -0.00000000       0.00000000      -0.00000000 </v>
   <v>       0.00000000      -0.00000000       0.00000000 </v>
  </varray>
  <varray name="stress" >
   <v>     -21.73725604       0.00000000      -0.00000000 </v>
   <v>       0.00000000     -21.73725604       0.00000000 </v>
   <v>      -0.00000000      -0.00000000      36.39388375 </v>
  </varray>
  <energy>
   <i name="e_fr_energy">    -10.12901172 </i>
   <i name="e_wo_entrp">    -10.11844204 </i>
   <i name="e_0_energy">     -0.02113936 </i>
  </energy>
  <time name="totalsc">    2.30    2.55</time>
 </calculation>
 <calculation>
  <scstep>
   <time name="dav">    0.45    0.45</time>
   <time name="total">    0.48    0.49</time>
   <energy>
    <i name="alphaZ">      4.32664098 </i>
    <i name="ewald">   -263.60864682 </i>
    <i name="hartreedc">     -2.47810434 </i>
    <i name="XCdc">    -17.63441204 </i>
    <i name="pawpsdc">     72.19204973 </i>
    <i name="pawaedc">    -37.11344671 </i>
    <i name="eentropy">     -0.01585941 </i>
    <i name="bandstr">     28.06957831 </i>
    <i name="atom">    206.09183643 </i>
    <i name="e_fr_energy">    -10.17036388 </i>
    <i name="e_wo_entrp">    -10.15450447 </i>
    <i name="e_0_energy">    -10.16243417 </i>
   </energy>
  </scstep>
  <scstep>
   <time name="dav">    0.36    0.36</time>
   <time name="total">    0.39    0.40</time>
   <energy>
    <i name="e_fr_energy">    -10.14813746 </i>
    <i name="e_wo_entrp">    -10.13231105 </i>
    <i name="e_0_energy">    -10.14022426 </i>
   </energy>
  </scstep>
  <scstep>
   <time name="dav">    0.43    0.43</time>
   <time name="total">    0.46    0.49</time>
   <energy>
    <i name="e_fr_energy">    -10.13725561 </i>
    <i name="e_wo_entrp">    -10.12137622 </i>
    <i name="e_0_energy">    -10.12931591 </i>
   </energy>
  </scstep>
  <scstep>
   <time name="dav">    0.30    0.30</time>
   <time name="total">    0.32    0.33</time>
   <energy>
    <i name="alphaZ">      4.32664098 </i>
    <i name="ewald">   -263.60864682 </i>
    <i name="hartreedc">     -2.64224528 </i>
    <i name="XCdc">    -17.61863704 </i>
    <i name="pawpsdc">     72.34850744 </i>
    <i name="pawaedc">    -37.27483375 </i>
    <i name="eentropy">     -0.01587722 </i>
    <i name="bandstr">     28.25593810 </i>
    <i name="atom">    206.09183643 </i>
    <i name="e_fr_energy">    -10.13731717 </i>
    <i name="e_wo_entrp">    -10.12143995 </i>
    <i name="e_0_energy">    -10.12937856 </i>
   </energy>
  </scstep>
  <structure>
   <crystal>
    <varray name="basis" >
     <v>      -2.38074786       2.38074786       1.37270168 </v>
     <v>       2.38074786      -2.38074786       1.37270168 </v>
     <v>       2.38074786       2.38074786      -1.37270168 </v>
    </varray>
    <i name="volume">     31.12167484 </i>
    <varray name="rec_basis" >
     <v>      -0.00000000       0.21001804       0.36424520 </v>
     <v>       0.21001804      -0.00000000       0.36424520 </v>
     <v>       0.21001804       0.21001804       0.00000000 </v>
    </varray>
   </crystal>
   <varray name="positions" >
    <v>       0.25000000       0.75000000       0.50000000 </v>
    <v>       0.00000000       0.00000000       0.00000000 </v>
   </varray>
  </structure>
  <varray name="forces" >
   <v>      -0.00000000       0.00000000      -0.00000000 </v>
   <v>       0.00000000      -0.00000000       0.00000000 </v>
  </varray>
  <varray name="stress" >
   <v>       5.31044235       0.00000000      -0.00000000 </v>
   <v>       0.00000000       5.31044235       0.00000000 </v>
   <v>      -0.00000000       0.00000000     -30.90193209 </v>
  </varray>
  <energy>
   <i name="e_fr_energy">    -10.13731717 </i>
   <i name="e_wo_entrp">    -10.12937856 </i>
   <i name="e_0_energy">     -0.01587722 </i>
  </energy>
  <time name="totalsc">    1.88    2.10</time>
 </calculation>
 <calculation>
  <scstep>
   <time name="dav">    0.44    0.43</time>
   <time name="total">    0.46    0.47</time>
   <energy>
    <i name="alphaZ">      4.34052733 </i>
    <i name="ewald">   -263.99434346 </i>
    <i name="hartreedc">     -2.63174697 </i>
    <i name="XCdc">    -17.60406409 </i>
    <i name="pawpsdc">     72.29403746 </i>
    <i name="pawaedc">    -37.21827911 </i>
    <i name="eentropy">     -0.01824384 </i>
    <i name="bandstr">     28.59240067 </i>
    <i name="atom">    206.09183643 </i>
    <i name="e_fr_energy">    -10.14787557 </i>
    <i name="e_wo_entrp">    -10.12963173 </i>
    <i name="e_0_energy">    -10.13875365 </i>
   </energy>
  </scstep>
  <scstep>
   <time name="dav">    0.35    0.35</time>
   <time name="total">    0.38    0.39</time>
   <energy>
    <i name="e_fr_energy">    -10.14427846 </i>
    <i name="e_wo_entrp">    -10.12596562 </i>
    <i name="e_0_energy">    -10.13512204 </i>
   </energy>
  </scstep>
  <scstep>
   <time name="dav">    0.42    0.42</time>
   <time name="total">    0.45    0.46</time>
   <energy>
    <i name="e_fr_energy">    -10.14248437 </i>
    <i name="e_wo_entrp">    -10.12407005 </i>
    <i name="e_0_energy">    -10.13327721 </i>
   </energy>
  </scstep>
  <scstep>
   <time name="dav">    0.18    0.18</time>
   <time name="total">    0.20    0.21</time>
   <energy>
    <i name="alphaZ">      4.34052733 </i>
    <i name="ewald">   -263.99434346 </i>
    <i name="hartreedc">     -2.55349612 </i>
    <i name="XCdc">    -17.61273090 </i>
    <i name="pawpsdc">     72.19997763 </i>
    <i name="pawaedc">    -37.12148710 </i>
    <i name="eentropy">     -0.01841179 </i>
    <i name="bandstr">     28.52563298 </i>
    <i name="atom">    206.09183643 </i>
    <i name="e_fr_energy">    -10.14249500 </i>
    <i name="e_wo_entrp">    -10.12408321 </i>
    <i name="e_0_energy">    -10.13328911 </i>
   </energy>
  </scstep>
  <structure>
   <crystal>
    <varray name="basis" >
     <v>      -2.39606193       2.39606193       1.35087529 </v>
     <v>       2.39606193      -2.39606193       1.35087529 </v>
     <v>       2.39606193       2.39606193      -1.35087529 </v>
    </varray>
    <i name="volume">     31.02210941 </i>
    <varray name="rec_basis" >
     <v>       0.00000000       0.20867574       0.37013039 </v>
     <v>       0.20867574       0.00000000       0.37013039 </v>
     <v>       0.20867574       0.20867574       0.00000000 </v>
    </varray>
   </crystal>
   <varray name="positions" >
    <v>       0.25000000       0.75000000       0.50000000 </v>
    <v>       0.00000000       0.00000000       0.00000000 </v>
   </varray>
  </structure>
  <varray name="forces" >
   <v>      -0.00000000       0.00000000       0.00000000 </v>
   <v>       0.00000000      -0.00000000      -0.00000000 </v>
  </varray>
  <varray name="stress" >
   <v>      -6.28355392      -0.00000000       0.00000000 </v>
   <v>      -0.00000000      -6.28355392       0.00000000 </v>
   <v>       0.00000000       0.00000000      -3.58181896 </v>
  </varray>
  <energy>
   <i name="e_fr_energy">    -10.14249500 </i>
   <i name="e_wo_entrp">    -10.13328911 </i>
   <i name="e_0_energy">     -0.01841179 </i>
  </energy>
  <time name="totalsc">    1.72    1.93</time>
 </calculation>
 <calculation>
  <scstep>
   <time name="dav">    0.18    0.18</time>
   <time name="total">    0.21    0.21</time>
   <energy>
    <i name="alphaZ">      4.34011850 </i>
    <i name="ewald">   -263.98380061 </i>
    <i name="hartreedc">     -2.55593467 </i>
    <i name="XCdc">    -17.61266517 </i>
    <i name="pawpsdc">     72.21761644 </i>
    <i name="pawaedc">    -37.13983919 </i>
    <i name="eentropy">     -0.01836935 </i>
    <i name="bandstr">     28.51853592 </i>
    <i name="atom">    206.09183643 </i>
    <i name="e_fr_energy">    -10.14250170 </i>
    <i name="e_wo_entrp">    -10.12413235 </i>
    <i name="e_0_energy">    -10.13331702 </i>
   </energy>
  </scstep>
  <scstep>
   <time name="dav">    0.17    0.17</time>
   <time name="total">    0.19    0.20</time>
   <energy>
    <i name="alphaZ">      4.34011850 </i>
    <i name="ewald">   -263.98380061 </i>
    <i name="hartreedc">     -2.55697410 </i>
    <i name="XCdc">    -17.61249367 </i>
    <i name="pawpsdc">     72.22013935 </i>
    <i name="pawaedc">    -37.14241071 </i>
    <i name="eentropy">     -0.01836639 </i>
    <i name="bandstr">     28.51945332 </i>
    <i name="atom">    206.09183643 </i>
    <i name="e_fr_energy">    -10.14249789 </i>
    <i name="e_wo_entrp">    -10.12413150 </i>
    <i name="e_0_energy">    -10.13331469 </i>
   </energy>
  </scstep>
  <structure>
   <crystal>
    <varray name="basis" >
     <v>      -2.39563386       2.39563386       1.35148539 </v>
     <v>       2.39563386      -2.39563386       1.35148539 </v>
     <v>       2.39563386       2.39563386      -1.35148539 </v>
    </varray>
    <i name="volume">     31.02503159 </i>
    <varray name="rec_basis" >
     <v>       0.00000000       0.20871303       0.36996330 </v>
     <v>       0.20871303       0.00000000       0.36996330 </v>
     <v>       0.20871303       0.20871303      -0.00000000 </v>
    </varray>
   </crystal>
   <varray name="positions" >
    <v>       0.25000000       0.75000000       0.50000000 </v>
    <v>       0.00000000       0.00000000       0.00000000 </v>
   </varray>
  </structure>
  <varray name="forces" >
   <v>      -0.00000000      -0.00000000      -0.00000000 </v>
   <v>       0.00000000       0.00000000       0.00000000 </v>
  </varray>
  <varray name="stress" >
   <v>      -5.89419712       0.00000000       0.00000000 </v>
   <v>       0.00000000      -5.89419712      -0.00000000 </v>
   <v>       0.00000000       0.00000000      -4.61098121 </v>
  </varray>
  <energy>
   <i name="e_fr_energy">    -10.14249789 </i>
   <i name="e_wo_entrp">    -10.13331469 </i>
   <i name="e_0_energy">     -0.01836639 </i>
  </energy>
  <time name="totalsc">    0.63    0.82</time>
 </calculation>
 <calculation>
  <scstep>
   <time name="dav">    0.17    0.17</time>
   <time name="total">    0.20    0.21</time>
   <energy>
    <i name="alphaZ">      4.34021491 </i>
    <i name="ewald">   -263.98629082 </i>
    <i name="hartreedc">     -2.55837235 </i>
    <i name="XCdc">    -17.61215638 </i>
    <i name="pawpsdc">     72.22258660 </i>
    <i name="pawaedc">    -37.14489327 </i>
    <i name="eentropy">     -0.01837214 </i>
    <i name="bandstr">     28.52294987 </i>
    <i name="atom">    206.09183643 </i>
    <i name="e_fr_energy">    -10.14249717 </i>
    <i name="e_wo_entrp">    -10.12412502 </i>
    <i name="e_0_energy">    -10.13331109 </i>
   </energy>
  </scstep>
  <scstep>
   <time name="dav">    0.17    0.17</time>
   <time name="total">    0.20    0.21</time>
   <energy>
    <i name="alphaZ">      4.34021491 </i>
    <i name="ewald">   -263.98629082 </i>
    <i name="hartreedc">     -2.55813846 </i>
    <i name="XCdc">    -17.61218573 </i>
    <i name="pawpsdc">     72.22197217 </i>
    <i name="pawaedc">    -37.14425791 </i>
    <i name="eentropy">     -0.01837272 </i>
    <i name="bandstr">     28.52272507 </i>
    <i name="atom">    206.09183643 </i>
    <i name="e_fr_energy">    -10.14249707 </i>
    <i name="e_wo_entrp">    -10.12412435 </i>
    <i name="e_0_energy">    -10.13331071 </i>
   </energy>
  </scstep>
  <structure>
   <crystal>
    <varray name="basis" >
     <v>      -2.39573492       2.39573492       1.35134136 </v>
     <v>       2.39573492      -2.39573492       1.35134136 </v>
     <v>       2.39573492       2.39573492      -1.35134136 </v>
    </varray>
    <i name="volume">     31.02434246 </i>
    <varray name="rec_basis" >
     <v>      -0.00000000       0.20870423       0.37000274 </v>
     <v>       0.20870423      -0.00000000       0.37000274 </v>
     <v>       0.20870423       0.20870423       0.00000000 </v>
    </varray>
   </crystal>
   <varray name="positions" >
    <v>       0.25000000       0.75000000       0.50000000 </v>
    <v>       0.00000000       0.00000000       0.00000000 </v>
   </varray>
  </structure>
  <varray name="forces" >
   <v>       0.00000000       0.00000000       0.00000000 </v>
   <v>      -0.00000000      -0.00000000      -0.00000000 </v>
  </varray>
  <varray name="stress" >
   <v>      -5.76394347       0.00000000       0.00000000 </v>
   <v>       0.00000000      -5.76394347      -0.00000000 </v>
   <v>      -0.00000000      -0.00000000      -5.06342887 </v>
  </varray>
  <energy>
   <i name="e_fr_energy">    -10.14249707 </i>
   <i name="e_wo_entrp">    -10.13331071 </i>
   <i name="e_0_energy">     -0.01837272 </i>
  </energy>
  <time name="totalsc">    0.62    0.81</time>
 </calculation>
 <calculation>
  <scstep>
   <time name="dav">    0.17    0.17</time>
   <time name="total">    0.20    0.21</time>
   <energy>
    <i name="alphaZ">      4.34037103 </i>
    <i name="ewald">   -263.99031820 </i>
    <i name="hartreedc">     -2.55780340 </i>
    <i name="XCdc">    -17.61204082 </i>
    <i name="pawpsdc">     72.22139134 </i>
    <i name="pawaedc">    -37.14365570 </i>
    <i name="eentropy">     -0.01838926 </i>
    <i name="bandstr">     28.52611062 </i>
    <i name="atom">    206.09183643 </i>
    <i name="e_fr_energy">    -10.14249795 </i>
    <i name="e_wo_entrp">    -10.12410869 </i>
    <i name="e_0_energy">    -10.13330332 </i>
   </energy>
  </scstep>
  <scstep>
   <time name="dav">    0.17    0.17</time>
   <time name="total">    0.19    0.20</time>
   <energy>
    <i name="alphaZ">      4.34037103 </i>
    <i name="ewald">   -263.99031820 </i>
    <i name="hartreedc">     -2.55751426 </i>
    <i name="XCdc">    -17.61206920 </i>
    <i name="pawpsdc">     72.22100551 </i>
    <i name="pawaedc">    -37.14325897 </i>
    <i name="eentropy">     -0.01839008 </i>
    <i name="bandstr">     28.52584008 </i>
    <i name="atom">    206.09183643 </i>
    <i name="e_fr_energy">    -10.14249765 </i>
    <i name="e_wo_entrp">    -10.12410757 </i>
    <i name="e_0_energy">    -10.13330261 </i>
   </energy>
  </scstep>
  <structure>
   <crystal>
    <varray name="basis" >
     <v>      -2.39589842       2.39589842       1.35110832 </v>
     <v>       2.39589842      -2.39589842       1.35110832 </v>
     <v>       2.39589842       2.39589842      -1.35110832 </v>
    </varray>
    <i name="volume">     31.02322652 </i>
    <varray name="rec_basis" >
     <v>      -0.00000000       0.20868998       0.37006655 </v>
     <v>       0.20868998      -0.00000000       0.37006655 </v>
     <v>       0.20868998       0.20868998       0.00000000 </v>
    </varray>
   </crystal>
   <varray name="positions" >
    <v>       0.25000000       0.75000000       0.50000000 </v>
    <v>       0.00000000       0.00000000       0.00000000 </v>
   </varray>
  </structure>
  <varray name="forces" >
   <v>      -0.00000000      -0.00000000      -0.00000000 </v>
   <v>       0.00000000       0.00000000       0.00000000 </v>
  </varray>
  <varray name="stress" >
   <v>      -5.88370974       0.00000000       0.00000000 </v>
   <v>       0.00000000      -5.88370974      -0.00000000 </v>
   <v>       0.00000000      -0.00000000      -4.80339431 </v>
  </varray>
  <energy>
   <i name="e_fr_energy">    -10.14249765 </i>
   <i name="e_wo_entrp">    -10.13330261 </i>
   <i name="e_0_energy">     -0.01839008 </i>
  </energy>
  <time name="totalsc">    0.62    0.82</time>
 </calculation>
 <calculation>
  <scstep>
   <time name="dav">    0.17    0.17</time>
   <time name="total">    0.20    0.21</time>
   <energy>
    <i name="alphaZ">      4.34044916 </i>
    <i name="ewald">   -263.99233109 </i>
    <i name="hartreedc">     -2.55712047 </i>
    <i name="XCdc">    -17.61201195 </i>
    <i name="pawpsdc">     72.22081715 </i>
    <i name="pawaedc">    -37.14306537 </i>
    <i name="eentropy">     -0.01839909 </i>
    <i name="bandstr">     28.52732792 </i>
    <i name="atom">    206.09183643 </i>
    <i name="e_fr_energy">    -10.14249732 </i>
    <i name="e_wo_entrp">    -10.12409823 </i>
    <i name="e_0_energy">    -10.13329777 </i>
   </energy>
  </scstep>
  <scstep>
   <time name="dav">    0.17    0.17</time>
   <time name="total">    0.19    0.20</time>
   <energy>
    <i name="alphaZ">      4.34044916 </i>
    <i name="ewald">   -263.99233109 </i>
    <i name="hartreedc">     -2.55698789 </i>
    <i name="XCdc">    -17.61202265 </i>
    <i name="pawpsdc">     72.22071803 </i>
    <i name="pawaedc">    -37.14296396 </i>
    <i name="eentropy">     -0.01839950 </i>
    <i name="bandstr">     28.52720422 </i>
    <i name="atom">    206.09183643 </i>
    <i name="e_fr_energy">    -10.14249725 </i>
    <i name="e_wo_entrp">    -10.12409775 </i>
    <i name="e_0_energy">    -10.13329750 </i>
   </energy>
  </scstep>
  <structure>
   <crystal>
    <varray name="basis" >
     <v>      -2.39598018       2.39598018       1.35099180 </v>
     <v>       2.39598018      -2.39598018       1.35099180 </v>
     <v>       2.39598018       2.39598018      -1.35099180 </v>
    </varray>
    <i name="volume">     31.02266811 </i>
    <varray name="rec_basis" >
     <v>       0.00000000       0.20868286       0.37009847 </v>
     <v>       0.20868286       0.00000000       0.37009847 </v>
     <v>       0.20868286       0.20868286      -0.00000000 </v>
    </varray>
   </crystal>
   <varray name="positions" >
    <v>       0.25000000       0.75000000       0.50000000 </v>
    <v>       0.00000000       0.00000000       0.00000000 </v>
   </varray>
  </structure>
  <varray name="forces" >
   <v>      -0.00000000       0.00000000      -0.00000000 </v>
   <v>       0.00000000      -0.00000000       0.00000000 </v>
  </varray>
  <varray name="stress" >
   <v>      -5.97461159       0.00000000       0.00000000 </v>
   <v>       0.00000000      -5.97461159       0.00000000 </v>
   <v>       0.00000000       0.00000000      -4.57572874 </v>
  </varray>
  <energy>
   <i name="e_fr_energy">    -10.14249725 </i>
   <i name="e_wo_entrp">    -10.13329750 </i>
   <i name="e_0_energy">     -0.01839950 </i>
  </energy>
  <time name="totalsc">    0.62    0.80</time>
 </calculation>
 <calculation>
  <scstep>
   <time name="dav">    0.42    0.42</time>
   <time name="total">    0.46    0.46</time>
   <energy>
    <i name="alphaZ">      4.37837868 </i>
    <i name="ewald">   -264.75326617 </i>
    <i name="hartreedc">     -2.56438805 </i>
    <i name="XCdc">    -17.56775645 </i>
    <i name="pawpsdc">     72.22071490 </i>
    <i name="pawaedc">    -37.14296097 </i>
    <i name="eentropy">     -0.01843363 </i>
    <i name="bandstr">     29.21295864 </i>
    <i name="atom">    206.09183643 </i>
    <i name="e_fr_energy">    -10.14291660 </i>
    <i name="e_wo_entrp">    -10.12448298 </i>
    <i name="e_0_energy">    -10.13369979 </i>
   </energy>
  </scstep>
  <scstep>
   <time name="dav">    0.22    0.23</time>
   <time name="total">    0.25    0.26</time>
   <energy>
    <i name="alphaZ">      4.37837868 </i>
    <i name="ewald">   -264.75326617 </i>
    <i name="hartreedc">     -2.54474745 </i>
    <i name="XCdc">    -17.56625633 </i>
    <i name="pawpsdc">     72.29435748 </i>
    <i name="pawaedc">    -37.21833434 </i>
    <i name="eentropy">     -0.01842376 </i>
    <i name="bandstr">     29.19372696 </i>
    <i name="atom">    206.09183643 </i>
    <i name="e_fr_energy">    -10.14272850 </i>
    <i name="e_wo_entrp">    -10.12430474 </i>
    <i name="e_0_energy">    -10.13351662 </i>
   </energy>
  </scstep>
  <structure>
   <crystal>
    <varray name="basis" >
     <v>      -2.38777260       2.38777260       1.34851126 </v>
     <v>       2.38777260      -2.38777260       1.34851126 </v>
     <v>       2.38777260       2.38777260      -1.34851126 </v>
    </varray>
    <i name="volume">     30.75392133 </i>
    <varray name="rec_basis" >
     <v>      -0.00000000       0.20940017       0.37077925 </v>
     <v>       0.20940017      -0.00000000       0.37077925 </v>
     <v>       0.20940017       0.20940017      -0.00000000 </v>
    </varray>
   </crystal>
   <varray name="positions" >
    <v>       0.25000000       0.75000000       0.50000000 </v>
    <v>       0.00000000       0.00000000       0.00000000 </v>
   </varray>
  </structure>
  <varray name="forces" >
   <v>      -0.00000000       0.00000000       0.00000000 </v>
   <v>       0.00000000      -0.00000000      -0.00000000 </v>
  </varray>
  <varray name="stress" >
   <v>       1.81749060       0.00000000       0.00000000 </v>
   <v>       0.00000000       1.81749060      -0.00000000 </v>
   <v>       0.00000000      -0.00000000       0.37247245 </v>
  </varray>
  <energy>
   <i name="e_fr_energy">    -10.14272850 </i>
   <i name="e_wo_entrp">    -10.13351662 </i>
   <i name="e_0_energy">     -0.01842376 </i>
  </energy>
  <time name="totalsc">    0.93    1.10</time>
 </calculation>
 <calculation>
  <scstep>
   <time name="dav">    0.34    0.34</time>
   <time name="total">    0.36    0.37</time>
   <energy>
    <i name="alphaZ">      4.37042078 </i>
    <i name="ewald">   -264.59400475 </i>
    <i name="hartreedc">     -2.51596079 </i>
    <i name="XCdc">    -17.57281146 </i>
    <i name="pawpsdc">     72.42390948 </i>
    <i name="pawaedc">    -37.35117708 </i>
    <i name="eentropy">     -0.01840429 </i>
    <i name="bandstr">     29.02344342 </i>
    <i name="atom">    206.09183643 </i>
    <i name="e_fr_energy">    -10.14274827 </i>
    <i name="e_wo_entrp">    -10.12434397 </i>
    <i name="e_0_energy">    -10.13354612 </i>
   </energy>
  </scstep>
  <scstep>
   <time name="dav">    0.17    0.17</time>
   <time name="total">    0.20    0.20</time>
   <energy>
    <i name="alphaZ">      4.37042078 </i>
    <i name="ewald">   -264.59400475 </i>
    <i name="hartreedc">     -2.52006198 </i>
    <i name="XCdc">    -17.57294501 </i>
    <i name="pawpsdc">     72.41854386 </i>
    <i name="pawaedc">    -37.34591812 </i>
    <i name="eentropy">     -0.01840645 </i>
    <i name="bandstr">     29.02779450 </i>
    <i name="atom">    206.09183643 </i>
    <i name="e_fr_energy">    -10.14274074 </i>
    <i name="e_wo_entrp">    -10.12433429 </i>
    <i name="e_0_energy">    -10.13353751 </i>
   </energy>
  </scstep>
  <structure>
   <crystal>
    <varray name="basis" >
     <v>      -2.38948660       2.38948660       1.34902928 </v>
     <v>       2.38948660      -2.38948660       1.34902928 </v>
     <v>       2.38948660       2.38948660      -1.34902928 </v>
    </varray>
    <i name="volume">     30.80991975 </i>
    <varray name="rec_basis" >
     <v>       0.00000000       0.20924997       0.37063688 </v>
     <v>       0.20924997       0.00000000       0.37063688 </v>
     <v>       0.20924997       0.20924997      -0.00000000 </v>
    </varray>
   </crystal>
   <varray name="positions" >
    <v>       0.25000000       0.75000000       0.50000000 </v>
    <v>       0.00000000       0.00000000       0.00000000 </v>
   </varray>
  </structure>
  <varray name="forces" >
   <v>       0.00000000      -0.00000000      -0.00000000 </v>
   <v>      -0.00000000       0.00000000       0.00000000 </v>
  </varray>
  <varray name="stress" >
   <v>       3.25340728       0.00000000       0.00000000 </v>
   <v>       0.00000000       3.25340728       0.00000000 </v>
   <v>       0.00000000       0.00000000       1.10807075 </v>
  </varray>
  <energy>
   <i name="e_fr_energy">    -10.14274074 </i>
   <i name="e_wo_entrp">    -10.13353751 </i>
   <i name="e_0_energy">     -0.01840645 </i>
  </energy>
  <time name="totalsc">    0.79    0.95</time>
 </calculation>
 <calculation>
  <scstep>
   <time name="dav">    0.36    0.36</time>
   <time name="total">    0.39    0.40</time>
   <energy>
    <i name="alphaZ">      4.36053801 </i>
    <i name="ewald">   -264.39593444 </i>
    <i name="hartreedc">     -2.52376987 </i>
    <i name="XCdc">    -17.58480894 </i>
    <i name="pawpsdc">     72.40558412 </i>
    <i name="pawaedc">    -37.33295073 </i>
    <i name="eentropy">     -0.01840172 </i>
    <i name="bandstr">     28.85511018 </i>
    <i name="atom">    206.09183643 </i>
    <i name="e_fr_energy">    -10.14279697 </i>
    <i name="e_wo_entrp">    -10.12439525 </i>
    <i name="e_0_energy">    -10.13359611 </i>
   </energy>
  </scstep>
  <scstep>
   <time name="dav">    0.17    0.17</time>
   <time name="total">    0.20    0.20</time>
   <energy>
    <i name="alphaZ">      4.36053801 </i>
    <i name="ewald">   -264.39593444 </i>
    <i name="hartreedc">     -2.52884098 </i>
    <i name="XCdc">    -17.58522350 </i>
    <i name="pawpsdc">     72.38428527 </i>
    <i name="pawaedc">    -37.31110380 </i>
    <i name="eentropy">     -0.01840415 </i>
    <i name="bandstr">     28.86006428 </i>
    <i name="atom">    206.09183643 </i>
    <i name="e_fr_energy">    -10.14278287 </i>
    <i name="e_wo_entrp">    -10.12437872 </i>
    <i name="e_0_energy">    -10.13358080 </i>
   </energy>
  </scstep>
  <structure>
   <crystal>
    <varray name="basis" >
     <v>      -2.39162109       2.39162109       1.34967438 </v>
     <v>       2.39162109      -2.39162109       1.34967438 </v>
     <v>       2.39162109       2.39162109      -1.34967438 </v>
    </varray>
    <i name="volume">     30.87974770 </i>
    <varray name="rec_basis" >
     <v>      -0.00000000       0.20906322       0.37045973 </v>
     <v>       0.20906322      -0.00000000       0.37045973 </v>
     <v>       0.20906322       0.20906322       0.00000000 </v>
    </varray>
   </crystal>
   <varray name="positions" >
    <v>       0.25000000       0.75000000       0.50000000 </v>
    <v>       0.00000000       0.00000000       0.00000000 </v>
   </varray>
  </structure>
  <varray name="forces" >
   <v>       0.00000000      -0.00000000      -0.00000000 </v>
   <v>      -0.00000000       0.00000000       0.00000000 </v>
  </varray>
  <varray name="stress" >
   <v>       0.54833205       0.00000000       0.00000000 </v>
   <v>       0.00000000       0.54833205      -0.00000000 </v>
   <v>       0.00000000      -0.00000000      -0.49349580 </v>
  </varray>
  <energy>
   <i name="e_fr_energy">    -10.14278287 </i>
   <i name="e_wo_entrp">    -10.13358080 </i>
   <i name="e_0_energy">     -0.01840415 </i>
  </energy>
  <time name="totalsc">    1.10    1.73</time>
  <eigenvalues>
   <array>
    <dimension dim="1">band</dimension>
    <dimension dim="2">kpoint</dimension>
    <dimension dim="3">spin</dimension>
    <field>eigene</field>
    <field>occ</field>
    <set>
     <set comment="spin 1">
      <set comment="kpoint 1">
       <r>   -4.1337    1.0000 </r>
       <r>    4.8510    1.0000 </r>
       <r>    7.0701    1.0000 </r>
       <r>    8.8554    0.8502 </r>
       <r>   12.3284    0.0000 </r>
       <r>   13.9888    0.0000 </r>
       <r>   14.4803    0.0000 </r>
       <r>   16.6936    0.0000 </r>
      </set>
      <set comment="kpoint 2">
       <r>   -2.9232    1.0000 </r>
       <r>    4.5419    1.0000 </r>
       <r>    7.3246    1.0000 </r>
       <r>    9.4121    0.0019 </r>
       <r>   11.1219    0.0000 </r>
       <r>   11.3524    0.0000 </r>
       <r>   14.0716    0.0000 </r>
       <r>   14.9774    0.0000 </r>
      </set>
      <set comment="kpoint 3">
       <r>   -0.9353    1.0000 </r>
       <r>    4.6919    1.0000 </r>
       <r>    5.7249    1.0000 </r>
       <r>    7.5197    1.0000 </r>
       <r>    8.9394    0.6713 </r>
       <r>   12.0507    0.0000 </r>
       <r>   13.7203    0.0000 </r>
       <r>   14.1865    0.0000 </r>
      </set>
      <set comment="kpoint 4">
       <r>    1.3716    1.0000 </r>
       <r>    2.3350    1.0000 </r>
       <r>    5.9828    1.0000 </r>
       <r>    6.4807    1.0000 </r>
       <r>    8.8112    0.9115 </r>
       <r>   10.9335    0.0000 </r>
       <r>   13.5868    0.0000 </r>
       <r>   14.6147    0.0000 </r>
      </set>
      <set comment="kpoint 5">
       <r>   -4.5394    1.0000 </r>
       <r>    5.5322    1.0000 </r>
       <r>    6.2422    1.0000 </r>
       <r>    8.5266    0.9996 </r>
       <r>   11.4310    0.0000 </r>
       <r>   15.4419    0.0000 </r>
       <r>   17.8566    0.0000 </r>
       <r>   18.0119    0.0000 </r>
      </set>
      <set comment="kpoint 6">
       <r>   -1.1248    1.0000 </r>
       <r>    4.7237    1.0000 </r>
       <r>    6.5672    1.0000 </r>
       <r>    6.8170    1.0000 </r>
       <r>    9.9805    0.0000 </r>
       <r>   12.1524    0.0000 </r>
       <r>   13.2297    0.0000 </r>
       <r>   13.4851    0.0000 </r>
      </set>
      <set comment="kpoint 7">
       <r>    1.3180    1.0000 </r>
       <r>    3.0871    1.0000 </r>
       <r>    4.4866    1.0000 </r>
       <r>    6.0452    1.0000 </r>
       <r>   10.1955    0.0000 </r>
       <r>   11.9967    0.0000 </r>
       <r>   13.0824    0.0000 </r>
       <r>   15.2262    0.0000 </r>
      </set>
      <set comment="kpoint 8">
       <r>    0.0118    1.0000 </r>
       <r>    2.9415    1.0000 </r>
       <r>    4.9963    1.0000 </r>
       <r>    7.4673    1.0000 </r>
       <r>    9.4835    0.0003 </r>
       <r>   12.2446    0.0000 </r>
       <r>   14.1379    0.0000 </r>
       <r>   15.1356    0.0000 </r>
      </set>
      <set comment="kpoint 9">
       <r>   -2.1483    1.0000 </r>
       <r>    2.3939    1.0000 </r>
       <r>    7.8349    1.0000 </r>
       <r>    8.9851    0.5478 </r>
       <r>   10.5935    0.0000 </r>
       <r>   12.0768    0.0000 </r>
       <r>   13.2378    0.0000 </r>
       <r>   15.6221    0.0000 </r>
      </set>
      <set comment="kpoint 10">
       <r>   -3.5474    1.0000 </r>
       <r>    2.5384    1.0000 </r>
       <r>    7.5922    1.0000 </r>
       <r>    9.7693    0.0000 </r>
       <r>   12.4814    0.0000 </r>
       <r>   13.8610    0.0000 </r>
       <r>   14.7533    0.0000 </r>
       <r>   15.4705    0.0000 </r>
      </set>
      <set comment="kpoint 11">
       <r>   -4.1478    1.0000 </r>
       <r>    3.4096    1.0000 </r>
       <r>    6.3918    1.0000 </r>
       <r>    9.7657    0.0000 </r>
       <r>   13.3815    0.0000 </r>
       <r>   13.5137    0.0000 </r>
       <r>   16.5321    0.0000 </r>
       <r>   17.2233    0.0000 </r>
      </set>
      <set comment="kpoint 12">
       <r>   -3.9383    1.0000 </r>
       <r>    4.6130    1.0000 </r>
       <r>    5.6750    1.0000 </r>
       <r>   10.3392    0.0000 </r>
       <r>   13.0731    0.0000 </r>
       <r>   13.0737    0.0000 </r>
       <r>   14.0679    0.0000 </r>
       <r>   16.0419    0.0000 </r>
      </set>
      <set comment="kpoint 13">
       <r>    1.2793    1.0000 </r>
       <r>    1.3575    1.0000 </r>
       <r>    4.7892    1.0000 </r>
       <r>    7.3913    1.0000 </r>
       <r>   10.2700    0.0000 </r>
       <r>   11.1118    0.0000 </r>
       <r>   15.3055    0.0000 </r>
       <r>   16.0887    0.0000 </r>
      </set>
      <set comment="kpoint 14">
       <r>   -0.9938    1.0000 </r>
       <r>    0.5283    1.0000 </r>
       <r>    8.1896    1.0000 </r>
       <r>    8.9197    0.7199 </r>
       <r>   10.4119    0.0000 </r>
       <r>   11.8171    0.0000 </r>
       <r>   13.1306    0.0000 </r>
       <r>   14.5579    0.0000 </r>
      </set>
      <set comment="kpoint 15">
       <r>   -2.5749    1.0000 </r>
       <r>    0.4889    1.0000 </r>
       <r>    8.4533    0.9999 </r>
       <r>   10.7127    0.0000 </r>
       <r>   11.0957    0.0000 </r>
       <r>   13.2326    0.0000 </r>
       <r>   14.0643    0.0000 </r>
       <r>   14.0817    0.0000 </r>
      </set>
      <set comment="kpoint 16">
       <r>   -3.3668    1.0000 </r>
       <r>    1.2207    1.0000 </r>
       <r>    7.1059    1.0000 </r>
       <r>   10.7042    0.0000 </r>
       <r>   11.3712    0.0000 </r>
       <r>   14.8570    0.0000 </r>
       <r>   16.4148    0.0000 </r>
       <r>   16.9907    0.0000 </r>
      </set>
      <set comment="kpoint 17">
       <r>   -3.3532    1.0000 </r>
       <r>    2.6824    1.0000 </r>
       <r>    5.8467    1.0000 </r>
       <r>   11.0946    0.0000 </r>
       <r>   11.6692    0.0000 </r>
       <r>   13.2274    0.0000 </r>
       <r>   15.1525    0.0000 </r>
       <r>   16.0361    0.0000 </r>
      </set>
      <set comment="kpoint 18">
       <r>   -2.5360    1.0000 </r>
       <r>    4.4196    1.0000 </r>
       <r>    5.6281    1.0000 </r>
       <r>    8.5541    0.9992 </r>
       <r>   11.4845    0.0000 </r>
       <r>   13.3207    0.0000 </r>
       <r>   13.7996    0.0000 </r>
       <r>   13.8974    0.0000 </r>
      </set>
      <set comment="kpoint 19">
       <r>   -1.2254    1.0000 </r>
       <r>   -1.2254    1.0000 </r>
       <r>    9.6149    0.0000 </r>
       <r>    9.6149    0.0000 </r>
       <r>   12.0215    0.0000 </r>
       <r>   12.0215    0.0000 </r>
       <r>   13.7126    0.0000 </r>
       <r>   13.7126    0.0000 </r>
      </set>
      <set comment="kpoint 20">
       <r>   -2.2032    1.0000 </r>
       <r>   -0.6677    1.0000 </r>
       <r>    8.1869    1.0000 </r>
       <r>    9.6202    0.0000 </r>
       <r>   11.8369    0.0000 </r>
       <r>   13.2372    0.0000 </r>
       <r>   16.6042    0.0000 </r>
       <r>   16.7271    0.0000 </r>
      </set>
      <set comment="kpoint 21">
       <r>   -2.3832    1.0000 </r>
       <r>    0.6668    1.0000 </r>
       <r>    6.7218    1.0000 </r>
       <r>    9.5286    0.0001 </r>
       <r>   11.6864    0.0000 </r>
       <r>   13.3957    0.0000 </r>
       <r>   15.0264    0.0000 </r>
       <r>   16.0675    0.0000 </r>
      </set>
      <set comment="kpoint 22">
       <r>   -1.7648    1.0000 </r>
       <r>    2.7060    1.0000 </r>
       <r>    5.8812    1.0000 </r>
       <r>    7.8814    1.0000 </r>
       <r>   10.1398    0.0000 </r>
       <r>   12.7910    0.0000 </r>
       <r>   14.6751    0.0000 </r>
       <r>   15.7193    0.0000 </r>
      </set>
      <set comment="kpoint 23">
       <r>   -0.3694    1.0000 </r>
       <r>    4.1630    1.0000 </r>
       <r>    5.5316    1.0000 </r>
       <r>    6.1847    1.0000 </r>
       <r>    9.4768    0.0004 </r>
       <r>   11.8113    0.0000 </r>
       <r>   12.3954    0.0000 </r>
       <r>   15.7848    0.0000 </r>
      </set>
      <set comment="kpoint 24">
       <r>   -1.0415    1.0000 </r>
       <r>   -1.0337    1.0000 </r>
       <r>    7.9584    1.0000 </r>
       <r>    7.9828    1.0000 </r>
       <r>   11.6469    0.0000 </r>
       <r>   14.0418    0.0000 </r>
       <r>   14.8697    0.0000 </r>
       <r>   15.0692    0.0000 </r>
      </set>
      <set comment="kpoint 25">
       <r>   -0.6174    1.0000 </r>
       <r>    0.8893    1.0000 </r>
       <r>    6.7501    1.0000 </r>
       <r>    7.5679    1.0000 </r>
       <r>    8.6461    0.9941 </r>
       <r>   12.3920    0.0000 </r>
       <r>   15.8290    0.0000 </r>
       <r>   17.0936    0.0000 </r>
      </set>
      <set comment="kpoint 26">
       <r>    0.5600    1.0000 </r>
       <r>    3.2247    1.0000 </r>
       <r>    4.3326    1.0000 </r>
       <r>    6.7080    1.0000 </r>
       <r>    9.0060    0.4889 </r>
       <r>   10.9887    0.0000 </r>
       <r>   13.4732    0.0000 </r>
       <r>   17.1577    0.0000 </r>
      </set>
      <set comment="kpoint 27">
       <r>    0.9545    1.0000 </r>
       <r>    2.7544    1.0000 </r>
       <r>    6.5714    1.0000 </r>
       <r>    7.0991    1.0000 </r>
       <r>    7.9594    1.0000 </r>
       <r>   10.5221    0.0000 </r>
       <r>   12.0799    0.0000 </r>
       <r>   16.0017    0.0000 </r>
      </set>
      <set comment="kpoint 28">
       <r>    1.7189    1.0000 </r>
       <r>    1.9283    1.0000 </r>
       <r>    3.9667    1.0000 </r>
       <r>    7.5962    1.0000 </r>
       <r>    8.0734    1.0000 </r>
       <r>   10.5721    0.0000 </r>
       <r>   15.4187    0.0000 </r>
       <r>   16.1798    0.0000 </r>
      </set>
      <set comment="kpoint 29">
       <r>    0.6315    1.0000 </r>
       <r>    3.7923    1.0000 </r>
       <r>    5.1996    1.0000 </r>
       <r>    7.4254    1.0000 </r>
       <r>    8.5763    0.9987 </r>
       <r>   10.4595    0.0000 </r>
       <r>   12.1113    0.0000 </r>
       <r>   14.6735    0.0000 </r>
      </set>
      <set comment="kpoint 30">
       <r>   -1.5086    1.0000 </r>
       <r>    5.9794    1.0000 </r>
       <r>    7.2340    1.0000 </r>
       <r>    7.4162    1.0000 </r>
       <r>    8.7378    0.9692 </r>
       <r>   11.1868    0.0000 </r>
       <r>   12.1252    0.0000 </r>
       <r>   13.8764    0.0000 </r>
      </set>
      <set comment="kpoint 31">
       <r>   -1.7002    1.0000 </r>
       <r>    6.7097    1.0000 </r>
       <r>    7.2896    1.0000 </r>
       <r>    7.7259    1.0000 </r>
       <r>    9.1119    0.2187 </r>
       <r>   10.9247    0.0000 </r>
       <r>   12.0198    0.0000 </r>
       <r>   12.2248    0.0000 </r>
      </set>
      <set comment="kpoint 32">
       <r>   -3.3122    1.0000 </r>
       <r>    6.5907    1.0000 </r>
       <r>    7.2033    1.0000 </r>
       <r>    9.2854    0.0226 </r>
       <r>   11.1384    0.0000 </r>
       <r>   11.5508    0.0000 </r>
       <r>   12.4848    0.0000 </r>
       <r>   14.0925    0.0000 </r>
      </set>
      <set comment="kpoint 33">
       <r>   -4.3297    1.0000 </r>
       <r>    6.8947    1.0000 </r>
       <r>    6.8947    1.0000 </r>
       <r>    7.5531    1.0000 </r>
       <r>   11.1601    0.0000 </r>
       <r>   14.7126    0.0000 </r>
       <r>   14.8584    0.0000 </r>
       <r>   16.8418    0.0000 </r>
      </set>
      <set comment="kpoint 34">
       <r>   -0.1730    1.0000 </r>
       <r>    2.7974    1.0000 </r>
       <r>    6.1190    1.0000 </r>
       <r>    6.2278    1.0000 </r>
       <r>   11.0316    0.0000 </r>
       <r>   13.0082    0.0000 </r>
       <r>   14.2433    0.0000 </r>
       <r>   14.6068    0.0000 </r>
      </set>
      <set comment="kpoint 35">
       <r>    2.0992    1.0000 </r>
       <r>    2.8826    1.0000 </r>
       <r>    3.9593    1.0000 </r>
       <r>    4.6605    1.0000 </r>
       <r>   11.9242    0.0000 </r>
       <r>   13.9205    0.0000 </r>
       <r>   14.2589    0.0000 </r>
       <r>   14.4264    0.0000 </r>
      </set>
      <set comment="kpoint 36">
       <r>   -3.7574    1.0000 </r>
       <r>    3.2915    1.0000 </r>
       <r>    4.5379    1.0000 </r>
       <r>   11.2419    0.0000 </r>
       <r>   11.9533    0.0000 </r>
       <r>   14.6211    0.0000 </r>
       <r>   16.3667    0.0000 </r>
       <r>   16.7919    0.0000 </r>
      </set>
      <set comment="kpoint 37">
       <r>    1.1436    1.0000 </r>
       <r>    1.1436    1.0000 </r>
       <r>    5.9985    1.0000 </r>
       <r>    5.9985    1.0000 </r>
       <r>   12.3491    0.0000 </r>
       <r>   12.3491    0.0000 </r>
       <r>   14.2437    0.0000 </r>
       <r>   14.2438    0.0000 </r>
      </set>
      <set comment="kpoint 38">
       <r>   -2.9799    1.0000 </r>
       <r>    1.5429    1.0000 </r>
       <r>    4.8226    1.0000 </r>
       <r>    9.1471    0.1526 </r>
       <r>   13.2546    0.0000 </r>
       <r>   15.6182    0.0000 </r>
       <r>   16.2810    0.0000 </r>
       <r>   17.4589    0.0000 </r>
      </set>
      <set comment="kpoint 39">
       <r>   -2.7717    1.0000 </r>
       <r>    2.7225    1.0000 </r>
       <r>    4.0554    1.0000 </r>
       <r>    9.2678    0.0301 </r>
       <r>   11.5127    0.0000 </r>
       <r>   14.7552    0.0000 </r>
       <r>   16.5772    0.0000 </r>
       <r>   16.6087    0.0000 </r>
      </set>
      <set comment="kpoint 40">
       <r>   -1.8227    1.0000 </r>
       <r>   -0.3011    1.0000 </r>
       <r>    5.8844    1.0000 </r>
       <r>    7.3407    1.0000 </r>
       <r>   14.1833    0.0000 </r>
       <r>   14.9481    0.0000 </r>
       <r>   16.3677    0.0000 </r>
       <r>   17.0271    0.0000 </r>
      </set>
      <set comment="kpoint 41">
       <r>   -1.8101    1.0000 </r>
       <r>    1.1715    1.0000 </r>
       <r>    4.4886    1.0000 </r>
       <r>    7.3428    1.0000 </r>
       <r>   11.0536    0.0000 </r>
       <r>   16.0638    0.0000 </r>
       <r>   16.6965    0.0000 </r>
       <r>   18.5546    0.0000 </r>
      </set>
      <set comment="kpoint 42">
       <r>   -1.0030    1.0000 </r>
       <r>    2.9076    1.0000 </r>
       <r>    4.2932    1.0000 </r>
       <r>    7.0718    1.0000 </r>
       <r>    8.3073    1.0000 </r>
       <r>   14.0957    0.0000 </r>
       <r>   15.4255    0.0000 </r>
       <r>   17.3298    0.0000 </r>
      </set>
      <set comment="kpoint 43">
       <r>   -0.4896    1.0000 </r>
       <r>   -0.4734    1.0000 </r>
       <r>    5.7081    1.0000 </r>
       <r>    5.7393    1.0000 </r>
       <r>   10.8864    0.0000 </r>
       <r>   16.3211    0.0000 </r>
       <r>   17.4020    0.0000 </r>
       <r>   17.8270    0.0000 </r>
      </set>
      <set comment="kpoint 44">
       <r>    0.1245    1.0000 </r>
       <r>    1.5731    1.0000 </r>
       <r>    4.8543    1.0000 </r>
       <r>    6.1279    1.0000 </r>
       <r>    7.1488    1.0000 </r>
       <r>   14.2453    0.0000 </r>
       <r>   17.1309    0.0000 </r>
       <r>   18.4757    0.0000 </r>
      </set>
      <set comment="kpoint 45">
       <r>    1.4306    1.0000 </r>
       <r>    3.1033    1.0000 </r>
       <r>    4.4460    1.0000 </r>
       <r>    5.2413    1.0000 </r>
       <r>    7.6052    1.0000 </r>
       <r>   12.1520    0.0000 </r>
       <r>   13.3680    0.0000 </r>
       <r>   17.2932    0.0000 </r>
      </set>
      <set comment="kpoint 46">
       <r>    2.2314    1.0000 </r>
       <r>    2.8251    1.0000 </r>
       <r>    3.7647    1.0000 </r>
       <r>    6.0236    1.0000 </r>
       <r>    6.1667    1.0000 </r>
       <r>   12.3756    0.0000 </r>
       <r>   14.8619    0.0000 </r>
       <r>   15.7699    0.0000 </r>
      </set>
      <set comment="kpoint 47">
       <r>    0.2729    1.0000 </r>
       <r>    4.8438    1.0000 </r>
       <r>    5.8827    1.0000 </r>
       <r>    6.7642    1.0000 </r>
       <r>    7.6777    1.0000 </r>
       <r>   10.9835    0.0000 </r>
       <r>   11.9469    0.0000 </r>
       <r>   13.6055    0.0000 </r>
      </set>
      <set comment="kpoint 48">
       <r>   -1.8924    1.0000 </r>
       <r>    7.9996    1.0000 </r>
       <r>    7.9996    1.0000 </r>
       <r>    8.2129    1.0000 </r>
       <r>    8.4095    1.0000 </r>
       <r>   10.0633    0.0000 </r>
       <r>   11.7252    0.0000 </r>
       <r>   11.7252    0.0000 </r>
      </set>
      <set comment="kpoint 49">
       <r>   -2.2108    1.0000 </r>
       <r>    1.7567    1.0000 </r>
       <r>    3.1569    1.0000 </r>
       <r>    7.0042    1.0000 </r>
       <r>   14.5274    0.0000 </r>
       <r>   15.1034    0.0000 </r>
       <r>   17.2222    0.0000 </r>
       <r>   18.8802    0.0000 </r>
      </set>
      <set comment="kpoint 50">
       <r>   -1.0716    1.0000 </r>
       <r>    0.3937    1.0000 </r>
       <r>    3.7583    1.0000 </r>
       <r>    5.1865    1.0000 </r>
       <r>   14.6044    0.0000 </r>
       <r>   14.7354    0.0000 </r>
       <r>   18.4727    0.0000 </r>
       <r>   19.6047    0.0000 </r>
      </set>
      <set comment="kpoint 51">
       <r>   -0.8669    1.0000 </r>
       <r>    1.5687    1.0000 </r>
       <r>    2.9965    1.0000 </r>
       <r>    5.3721    1.0000 </r>
       <r>   10.5467    0.0000 </r>
       <r>   17.6722    0.0000 </r>
       <r>   18.7649    0.0000 </r>
       <r>   19.3847    0.0000 </r>
      </set>
      <set comment="kpoint 52">
       <r>    0.3907    1.0000 </r>
       <r>    0.4174    1.0000 </r>
       <r>    3.7622    1.0000 </r>
       <r>    3.7814    1.0000 </r>
       <r>   10.3738    0.0000 </r>
       <r>   17.8540    0.0000 </r>
       <r>   19.9633    0.0000 </r>
       <r>   20.0785    0.0000 </r>
      </set>
      <set comment="kpoint 53">
       <r>    1.1881    1.0000 </r>
       <r>    2.1440    1.0000 </r>
       <r>    3.5910    1.0000 </r>
       <r>    4.5070    1.0000 </r>
       <r>    6.6308    1.0000 </r>
       <r>   16.0397    0.0000 </r>
       <r>   17.2197    0.0000 </r>
       <r>   18.5708    0.0000 </r>
      </set>
      <set comment="kpoint 54">
       <r>    2.3910    1.0000 </r>
       <r>    3.6307    1.0000 </r>
       <r>    4.3223    1.0000 </r>
       <r>    4.9090    1.0000 </r>
       <r>    4.9090    1.0000 </r>
       <r>   14.2755    0.0000 </r>
       <r>   14.6667    0.0000 </r>
       <r>   14.6667    0.0000 </r>
      </set>
      <set comment="kpoint 55">
       <r>    0.0078    1.0000 </r>
       <r>    0.9809    1.0000 </r>
       <r>    2.4369    1.0000 </r>
       <r>    3.3945    1.0000 </r>
       <r>   14.4209    0.0000 </r>
       <r>   14.4478    0.0000 </r>
       <r>   20.9011    0.0000 </r>
       <r>   21.5869    0.0000 </r>
      </set>
      <set comment="kpoint 56">
       <r>    1.1576    1.0000 </r>
       <r>    1.2033    1.0000 </r>
       <r>    2.6360    1.0000 </r>
       <r>    2.6360    1.0000 </r>
       <r>   10.2002    0.0000 </r>
       <r>   18.2373    0.0000 </r>
       <r>   20.7929    0.0000 </r>
       <r>   20.7929    0.0000 </r>
      </set>
     </set>
    </set>
   </array>
  </eigenvalues>
  <separator name="orbital magnetization" >
   <v name="MAGDIPOLOUT">      0.00000000      0.00000000      0.00000000</v>
  </separator>
  <dos>
   <i name="efermi">      9.00206597 </i>
   <total>
    <array>
     <dimension dim="1">gridpoints</dimension>
     <dimension dim="2">spin</dimension>
     <field>energy</field>
     <field>total</field>
     <field>integrated</field>
     <set>
      <set comment="spin 1">
       <r>    -6.5394     0.0000     0.0000 </r>
       <r>    -6.4390     0.0000     0.0000 </r>
       <r>    -6.3386     0.0000     0.0000 </r>
       <r>    -6.2381     0.0000     0.0000 </r>
       <r>    -6.1377     0.0000     0.0000 </r>
       <r>    -6.0373     0.0000     0.0000 </r>
       <r>    -5.9369     0.0000     0.0000 </r>
       <r>    -5.8364     0.0000     0.0000 </r>
       <r>    -5.7360     0.0000     0.0000 </r>
       <r>    -5.6356     0.0000     0.0000 </r>
       <r>    -5.5352     0.0000     0.0000 </r>
       <r>    -5.4348     0.0000     0.0000 </r>
       <r>    -5.3343     0.0000     0.0000 </r>
       <r>    -5.2339     0.0000     0.0000 </r>
       <r>    -5.1335     0.0000     0.0000 </r>
       <r>    -5.0331     0.0000     0.0000 </r>
       <r>    -4.9327     0.0004     0.0000 </r>
       <r>    -4.8322     0.0026     0.0003 </r>
       <r>    -4.7318     0.0107     0.0014 </r>
       <r>    -4.6314     0.0278     0.0042 </r>
       <r>    -4.5310     0.0478     0.0090 </r>
       <r>    -4.4306     0.0632     0.0153 </r>
       <r>    -4.3301     0.0883     0.0242 </r>
       <r>    -4.2297     0.1428     0.0385 </r>
       <r>    -4.1293     0.2029     0.0589 </r>
       <r>    -4.0289     0.2199     0.0810 </r>
       <r>    -3.9284     0.1905     0.1001 </r>
       <r>    -3.8280     0.1496     0.1151 </r>
       <r>    -3.7276     0.1251     0.1277 </r>
       <r>    -3.6272     0.1384     0.1416 </r>
       <r>    -3.5268     0.2062     0.1623 </r>
       <r>    -3.4263     0.3137     0.1938 </r>
       <r>    -3.3259     0.3823     0.2322 </r>
       <r>    -3.2255     0.3383     0.2662 </r>
       <r>    -3.1251     0.2489     0.2912 </r>
       <r>    -3.0247     0.2398     0.3152 </r>
       <r>    -2.9242     0.2967     0.3450 </r>
       <r>    -2.8238     0.3141     0.3766 </r>
       <r>    -2.7234     0.2789     0.4046 </r>
       <r>    -2.6230     0.2634     0.4310 </r>
       <r>    -2.5226     0.2944     0.4606 </r>
       <r>    -2.4221     0.3372     0.4945 </r>
       <r>    -2.3217     0.3707     0.5317 </r>
       <r>    -2.2213     0.3934     0.5712 </r>
       <r>    -2.1209     0.3797     0.6093 </r>
       <r>    -2.0205     0.3356     0.6430 </r>
       <r>    -1.9200     0.3596     0.6791 </r>
       <r>    -1.8196     0.4772     0.7271 </r>
       <r>    -1.7192     0.5350     0.7808 </r>
       <r>    -1.6188     0.4338     0.8244 </r>
       <r>    -1.5183     0.2740     0.8519 </r>
       <r>    -1.4179     0.1742     0.8694 </r>
       <r>    -1.3175     0.1749     0.8869 </r>
       <r>    -1.2171     0.3011     0.9172 </r>
       <r>    -1.1167     0.5404     0.9714 </r>
       <r>    -1.0162     0.7644     1.0482 </r>
       <r>    -0.9158     0.7936     1.1279 </r>
       <r>    -0.8154     0.6272     1.1909 </r>
       <r>    -0.7150     0.4666     1.2377 </r>
       <r>    -0.6146     0.4308     1.2810 </r>
       <r>    -0.5141     0.4478     1.3260 </r>
       <r>    -0.4137     0.4319     1.3693 </r>
       <r>    -0.3133     0.3792     1.4074 </r>
       <r>    -0.2129     0.3261     1.4402 </r>
       <r>    -0.1125     0.3179     1.4721 </r>
       <r>    -0.0120     0.3701     1.5092 </r>
       <r>     0.0884     0.4292     1.5523 </r>
       <r>     0.1888     0.4459     1.5971 </r>
       <r>     0.2892     0.4759     1.6449 </r>
       <r>     0.3896     0.6006     1.7052 </r>
       <r>     0.4901     0.7817     1.7837 </r>
       <r>     0.5905     0.8752     1.8716 </r>
       <r>     0.6909     0.7868     1.9506 </r>
       <r>     0.7913     0.6005     2.0109 </r>
       <r>     0.8918     0.4810     2.0593 </r>
       <r>     0.9922     0.4837     2.1078 </r>
       <r>     1.0926     0.5899     2.1671 </r>
       <r>     1.1930     0.7598     2.2434 </r>
       <r>     1.2934     0.8769     2.3314 </r>
       <r>     1.3939     0.8569     2.4175 </r>
       <r>     1.4943     0.7515     2.4929 </r>
       <r>     1.5947     0.6299     2.5562 </r>
       <r>     1.6951     0.4909     2.6055 </r>
       <r>     1.7955     0.3474     2.6404 </r>
       <r>     1.8960     0.2540     2.6659 </r>
       <r>     1.9964     0.2392     2.6899 </r>
       <r>     2.0968     0.2870     2.7187 </r>
       <r>     2.1972     0.3612     2.7550 </r>
       <r>     2.2976     0.4340     2.7986 </r>
       <r>     2.3981     0.4892     2.8477 </r>
       <r>     2.4985     0.5334     2.9013 </r>
       <r>     2.5989     0.6316     2.9647 </r>
       <r>     2.6993     0.8045     3.0455 </r>
       <r>     2.7998     0.9369     3.1396 </r>
       <r>     2.9002     0.9430     3.2343 </r>
       <r>     3.0006     0.8671     3.3213 </r>
       <r>     3.1010     0.7672     3.3984 </r>
       <r>     3.2014     0.6502     3.4637 </r>
       <r>     3.3019     0.5140     3.5153 </r>
       <r>     3.4023     0.3879     3.5542 </r>
       <r>     3.5027     0.3217     3.5865 </r>
       <r>     3.6031     0.3653     3.6232 </r>
       <r>     3.7035     0.5153     3.6750 </r>
       <r>     3.8040     0.6501     3.7403 </r>
       <r>     3.9044     0.6418     3.8047 </r>
       <r>     4.0048     0.5292     3.8579 </r>
       <r>     4.1052     0.4379     3.9018 </r>
       <r>     4.2056     0.4527     3.9473 </r>
       <r>     4.3061     0.6151     4.0091 </r>
       <r>     4.4065     0.8872     4.0982 </r>
       <r>     4.5069     1.1223     4.2108 </r>
       <r>     4.6073     1.1886     4.3302 </r>
       <r>     4.7077     1.1276     4.4434 </r>
       <r>     4.8082     1.0414     4.5480 </r>
       <r>     4.9086     0.9133     4.6397 </r>
       <r>     5.0090     0.7248     4.7125 </r>
       <r>     5.1094     0.5717     4.7699 </r>
       <r>     5.2099     0.5061     4.8207 </r>
       <r>     5.3103     0.4549     4.8664 </r>
       <r>     5.4107     0.3938     4.9060 </r>
       <r>     5.5111     0.4112     4.9473 </r>
       <r>     5.6115     0.5634     5.0039 </r>
       <r>     5.7120     0.7991     5.0841 </r>
       <r>     5.8124     1.0233     5.1869 </r>
       <r>     5.9128     1.1760     5.3050 </r>
       <r>     6.0132     1.2297     5.4284 </r>
       <r>     6.1136     1.1558     5.5445 </r>
       <r>     6.2141     0.9452     5.6394 </r>
       <r>     6.3145     0.6820     5.7079 </r>
       <r>     6.4149     0.5369     5.7618 </r>
       <r>     6.5153     0.6160     5.8237 </r>
       <r>     6.6157     0.8544     5.9095 </r>
       <r>     6.7162     1.0450     6.0144 </r>
       <r>     6.8166     1.0002     6.1149 </r>
       <r>     6.9170     0.7970     6.1949 </r>
       <r>     7.0174     0.7126     6.2665 </r>
       <r>     7.1179     0.8453     6.3514 </r>
       <r>     7.2183     1.0678     6.4586 </r>
       <r>     7.3187     1.2820     6.5873 </r>
       <r>     7.4191     1.4308     6.7310 </r>
       <r>     7.5195     1.4280     6.8744 </r>
       <r>     7.6200     1.2498     6.9999 </r>
       <r>     7.7204     1.0024     7.1006 </r>
       <r>     7.8208     0.8440     7.1853 </r>
       <r>     7.9212     0.8007     7.2657 </r>
       <r>     8.0216     0.7618     7.3422 </r>
       <r>     8.1221     0.6772     7.4102 </r>
       <r>     8.2225     0.5804     7.4685 </r>
       <r>     8.3229     0.4979     7.5185 </r>
       <r>     8.4233     0.4782     7.5665 </r>
       <r>     8.5237     0.5537     7.6221 </r>
       <r>     8.6242     0.6505     7.6875 </r>
       <r>     8.7246     0.7047     7.7582 </r>
       <r>     8.8250     0.7812     7.8367 </r>
       <r>     8.9254     0.9050     7.9276 </r>
       <r>     9.0258     0.9356     8.0215 </r>
       <r>     9.1263     0.7967     8.1015 </r>
       <r>     9.2267     0.6324     8.1650 </r>
       <r>     9.3271     0.6037     8.2257 </r>
       <r>     9.4275     0.7042     8.2964 </r>
       <r>     9.5280     0.7851     8.3752 </r>
       <r>     9.6284     0.7214     8.4477 </r>
       <r>     9.7288     0.5502     8.5029 </r>
       <r>     9.8292     0.3878     8.5419 </r>
       <r>     9.9296     0.3089     8.5729 </r>
       <r>    10.0301     0.3497     8.6080 </r>
       <r>    10.1305     0.4910     8.6573 </r>
       <r>    10.2309     0.6532     8.7229 </r>
       <r>    10.3313     0.7860     8.8018 </r>
       <r>    10.4317     0.8899     8.8912 </r>
       <r>    10.5322     0.9248     8.9841 </r>
       <r>    10.6326     0.8386     9.0683 </r>
       <r>    10.7330     0.6963     9.1382 </r>
       <r>    10.8334     0.6813     9.2066 </r>
       <r>    10.9338     0.9076     9.2978 </r>
       <r>    11.0343     1.2298     9.4213 </r>
       <r>    11.1347     1.3421     9.5560 </r>
       <r>    11.2351     1.1449     9.6710 </r>
       <r>    11.3355     0.8653     9.7579 </r>
       <r>    11.4360     0.7259     9.8308 </r>
       <r>    11.5364     0.7386     9.9050 </r>
       <r>    11.6368     0.8339     9.9887 </r>
       <r>    11.7372     0.9475    10.0839 </r>
       <r>    11.8376     1.0666    10.1910 </r>
       <r>    11.9381     1.2532    10.3168 </r>
       <r>    12.0385     1.4815    10.4656 </r>
       <r>    12.1389     1.5632    10.6226 </r>
       <r>    12.2393     1.4177    10.7649 </r>
       <r>    12.3397     1.1826    10.8837 </r>
       <r>    12.4402     0.9356    10.9776 </r>
       <r>    12.5406     0.6456    11.0425 </r>
       <r>    12.6410     0.3841    11.0811 </r>
       <r>    12.7414     0.2665    11.1078 </r>
       <r>    12.8418     0.2927    11.1372 </r>
       <r>    12.9423     0.4400    11.1814 </r>
       <r>    13.0427     0.7349    11.2552 </r>
       <r>    13.1431     1.1054    11.3662 </r>
       <r>    13.2435     1.3609    11.5029 </r>
       <r>    13.3439     1.3856    11.6420 </r>
       <r>    13.4444     1.2336    11.7659 </r>
       <r>    13.5448     1.0268    11.8690 </r>
       <r>    13.6452     0.8621    11.9556 </r>
       <r>    13.7456     0.8017    12.0361 </r>
       <r>    13.8461     0.8644    12.1229 </r>
       <r>    13.9465     1.0554    12.2289 </r>
       <r>    14.0469     1.3408    12.3635 </r>
       <r>    14.1473     1.5444    12.5186 </r>
       <r>    14.2477     1.4663    12.6658 </r>
       <r>    14.3482     1.1789    12.7842 </r>
       <r>    14.4486     0.9928    12.8839 </r>
       <r>    14.5490     1.0743    12.9918 </r>
       <r>    14.6494     1.2590    13.1182 </r>
       <r>    14.7498     1.3035    13.2491 </r>
       <r>    14.8503     1.1975    13.3694 </r>
       <r>    14.9507     1.1043    13.4803 </r>
       <r>    15.0511     1.0828    13.5890 </r>
       <r>    15.1515     1.0398    13.6934 </r>
       <r>    15.2519     0.9035    13.7842 </r>
       <r>    15.3524     0.7350    13.8580 </r>
       <r>    15.4528     0.6370    13.9219 </r>
       <r>    15.5532     0.6361    13.9858 </r>
       <r>    15.6536     0.7014    14.0563 </r>
       <r>    15.7541     0.7734    14.1339 </r>
       <r>    15.8545     0.8235    14.2166 </r>
       <r>    15.9549     0.9196    14.3090 </r>
       <r>    16.0553     1.0464    14.4140 </r>
       <r>    16.1557     1.0222    14.5167 </r>
       <r>    16.2562     0.8314    14.6002 </r>
       <r>    16.3566     0.6677    14.6672 </r>
       <r>    16.4570     0.6241    14.7299 </r>
       <r>    16.5574     0.6715    14.7973 </r>
       <r>    16.6578     0.7269    14.8703 </r>
       <r>    16.7583     0.6791    14.9385 </r>
       <r>    16.8587     0.5532    14.9941 </r>
       <r>    16.9591     0.5335    15.0477 </r>
       <r>    17.0595     0.7029    15.1183 </r>
       <r>    17.1599     0.8969    15.2083 </r>
       <r>    17.2604     0.9085    15.2996 </r>
       <r>    17.3608     0.7298    15.3728 </r>
       <r>    17.4612     0.4967    15.4227 </r>
       <r>    17.5616     0.3202    15.4549 </r>
       <r>    17.6620     0.2474    15.4797 </r>
       <r>    17.7625     0.2624    15.5061 </r>
       <r>    17.8629     0.2871    15.5349 </r>
       <r>    17.9633     0.2500    15.5600 </r>
       <r>    18.0637     0.1651    15.5766 </r>
       <r>    18.1642     0.1009    15.5867 </r>
       <r>    18.2646     0.1116    15.5979 </r>
       <r>    18.3650     0.2270    15.6207 </r>
       <r>    18.4654     0.4106    15.6619 </r>
       <r>    18.5658     0.5203    15.7142 </r>
       <r>    18.6663     0.4599    15.7604 </r>
       <r>    18.7667     0.3122    15.7917 </r>
       <r>    18.8671     0.1892    15.8107 </r>
       <r>    18.9675     0.1062    15.8214 </r>
       <r>    19.0679     0.0514    15.8266 </r>
       <r>    19.1684     0.0316    15.8297 </r>
       <r>    19.2688     0.0504    15.8348 </r>
       <r>    19.3692     0.0905    15.8439 </r>
       <r>    19.4696     0.1219    15.8561 </r>
       <r>    19.5700     0.1292    15.8691 </r>
       <r>    19.6705     0.1143    15.8806 </r>
       <r>    19.7709     0.0934    15.8900 </r>
       <r>    19.8713     0.0998    15.9000 </r>
       <r>    19.9717     0.1385    15.9139 </r>
       <r>    20.0722     0.1608    15.9300 </r>
       <r>    20.1726     0.1297    15.9430 </r>
       <r>    20.2730     0.0696    15.9500 </r>
       <r>    20.3734     0.0246    15.9525 </r>
       <r>    20.4738     0.0073    15.9532 </r>
       <r>    20.5743     0.0098    15.9542 </r>
       <r>    20.6747     0.0288    15.9571 </r>
       <r>    20.7751     0.0591    15.9631 </r>
       <r>    20.8755     0.0797    15.9711 </r>
       <r>    20.9759     0.0708    15.9782 </r>
       <r>    21.0764     0.0414    15.9823 </r>
       <r>    21.1768     0.0160    15.9840 </r>
       <r>    21.2772     0.0058    15.9845 </r>
       <r>    21.3776     0.0092    15.9855 </r>
       <r>    21.4780     0.0236    15.9878 </r>
       <r>    21.5785     0.0398    15.9918 </r>
       <r>    21.6789     0.0414    15.9960 </r>
       <r>    21.7793     0.0266    15.9986 </r>
       <r>    21.8797     0.0105    15.9997 </r>
       <r>    21.9801     0.0026    16.0000 </r>
       <r>    22.0806     0.0004    16.0000 </r>
       <r>    22.1810     0.0000    16.0000 </r>
       <r>    22.2814     0.0000    16.0000 </r>
       <r>    22.3818     0.0000    16.0000 </r>
       <r>    22.4823     0.0000    16.0000 </r>
       <r>    22.5827     0.0000    16.0000 </r>
       <r>    22.6831     0.0000    16.0000 </r>
       <r>    22.7835     0.0000    16.0000 </r>
       <r>    22.8839     0.0000    16.0000 </r>
       <r>    22.9844     0.0000    16.0000 </r>
       <r>    23.0848     0.0000    16.0000 </r>
       <r>    23.1852     0.0000    16.0000 </r>
       <r>    23.2856     0.0000    16.0000 </r>
       <r>    23.3860     0.0000    16.0000 </r>
       <r>    23.4865     0.0000    16.0000 </r>
       <r>    23.5869     0.0000    16.0000 </r>
      </set>
     </set>
    </array>
   </total>
  </dos>
 </calculation>
 <structure name="finalpos" >
  <crystal>
   <varray name="basis" >
    <v>      -2.39162109       2.39162109       1.34967438 </v>
    <v>       2.39162109      -2.39162109       1.34967438 </v>
    <v>       2.39162109       2.39162109      -1.34967438 </v>
   </varray>
   <i name="volume">     30.87974770 </i>
   <varray name="rec_basis" >
    <v>      -0.00000000       0.20906322       0.37045973 </v>
    <v>       0.20906322      -0.00000000       0.37045973 </v>
    <v>       0.20906322       0.20906322       0.00000000 </v>
   </varray>
  </crystal>
  <varray name="positions" >
   <v>       0.25000000       0.75000000       0.50000000 </v>
   <v>       0.00000000       0.00000000       0.00000000 </v>
  </varray>
 </structure>
</modeling>
