unknown system                          
   1.00000000000000     
     0.000000    2.735588    2.735588
     2.735588   -0.000000    2.735588
     2.735588    2.735588    0.000000
   Si
     2
Direct
  0.500000  0.500000  0.500000
  0.750000  0.750000  0.750000
 
   32   32   32
 0.82544469097E+00 0.84548663521E+00 0.90749812515E+00 0.10167255862E+01 0.11808276454E+01
 0.14087960925E+01 0.17099773507E+01 0.20928684298E+01 0.25629216869E+01 0.31188488851E+01
 0.37479796093E+01 0.44224178392E+01 0.50981062736E+01 0.57181645927E+01 0.62205413214E+01
 0.65486906249E+01 0.66628351203E+01 0.65486452706E+01 0.62204928389E+01 0.57181469665E+01
 0.50981110387E+01 0.44224150160E+01 0.37479578325E+01 0.31188238175E+01 0.25629125183E+01
 0.20928775276E+01 0.17099920969E+01 0.14088035899E+01 0.11808258508E+01 0.10167221630E+01
 0.90749959967E+00 0.84549056274E+00 0.84548663521E+00 0.87972411640E+00 0.95141010135E+00
 0.10662172774E+01 0.12311471803E+01 0.14534056263E+01 0.17394148550E+01 0.20936433777E+01
 0.25166932491E+01 0.30023970580E+01 0.35345211843E+01 0.40845287648E+01 0.46120617784E+01
 0.50690925766E+01 0.54073877835E+01 0.55876164768E+01 0.55876243823E+01 0.54073882604E+01
 0.50690507102E+01 0.46119860301E+01 0.40844687237E+01 0.35345113393E+01 0.30024223367E+01
 0.25167165710E+01 0.20936505865E+01 0.17394190814E+01 0.14534181174E+01 0.12311624955E+01
 0.10662269525E+01 0.95141521186E+00 0.87972865766E+00 0.84548897057E+00 0.90749812515E+00
 0.95141010135E+00 0.10289789688E+01 0.11456491056E+01 0.13072358622E+01 0.15189135467E+01
 0.17843648468E+01 0.21047464404E+01 0.24770768494E+01 0.28920250126E+01 0.33317268143E+01
 0.37688277505E+01 0.41679983898E+01 0.44904449058E+01 0.47006860453E+01 0.47737621688E+01
 0.47006854010E+01 0.44904517897E+01 0.41680123571E+01 0.37688341185E+01 0.33317161691E+01
 0.28920115225E+01 0.24770833367E+01 0.21047718325E+01 0.17843825584E+01 0.15189076240E+01
 0.13072222484E+01 0.11456497888E+01 0.10289904017E+01 0.95141444711E+00 0.90749397962E+00
 0.89333219886E+00 0.10167255862E+01 0.10662172774E+01 0.11456491056E+01 0.12597514132E+01
 0.14129538209E+01 0.16085872659E+01 0.18481809087E+01 0.21305364219E+01 0.24503516931E+01
 0.27965581282E+01 0.31510498726E+01 0.34887969003E+01 0.37801266801E+01 0.39951815374E+01
 0.41095685414E+01 0.41095543273E+01 0.39951562311E+01 0.37801247466E+01 0.34888322680E+01
 0.31510963105E+01 0.27965749687E+01 0.24503291897E+01 0.21305038328E+01 0.18481675430E+01
 0.16085911081E+01 0.14129559672E+01 0.12597455540E+01 0.11456430957E+01 0.10662159108E+01
 0.10167261870E+01 0.99314478944E+00 0.99314455992E+00 0.11808276454E+01 0.12311471803E+01
 0.13072358622E+01 0.14129538209E+01 0.15515349198E+01 0.17249998023E+01 0.19334943162E+01
 0.21743554044E+01 0.24409135994E+01 0.27213684697E+01 0.29983769644E+01 0.32500390938E+01
 0.34525827184E+01 0.35843591749E+01 0.36301308844E+01 0.35843805777E+01 0.34525857677E+01
 0.32500034233E+01 0.29983313726E+01 0.27213498741E+01 0.24409188946E+01 0.21743531112E+01
 0.19334711222E+01 0.17249745841E+01 0.15515295122E+01 0.14129672947E+01 0.13072514722E+01
 0.12311532916E+01 0.11808254245E+01 0.11525108095E+01 0.11434197977E+01 0.11525143613E+01
 0.14087960925E+01 0.14534056263E+01 0.15189135467E+01 0.16085872659E+01 0.17249998023E+01
 0.18695240170E+01 0.20415847202E+01 0.22376637502E+01 0.24503508276E+01 0.26678791982E+01
 0.28745452236E+01 0.30522468549E+01 0.31830877088E+01 0.32525787634E+01 0.32525879359E+01
 0.31831083750E+01 0.30522578028E+01 0.28745221077E+01 0.26678226958E+01 0.24502968493E+01
 0.22376494124E+01 0.20416067786E+01 0.18695458503E+01 0.17249983848E+01 0.16085764872E+01
 0.15189169148E+01 0.14534224481E+01 0.14088072015E+01 0.13816198286E+01 0.13688993095E+01
 0.13689031057E+01 0.13816220915E+01 0.17099773507E+01 0.17394148550E+01 0.17843648468E+01
 0.18481809087E+01 0.19334943162E+01 0.20415847202E+01 0.21715102961E+01 0.23192189411E+01
 0.24770761212E+01 0.26341293036E+01 0.27771397527E+01 0.28922475147E+01 0.29670930625E+01
 0.29930649436E+01 0.29670775076E+01 0.28922389970E+01 0.27771527436E+01 0.26341533966E+01
 0.24770915658E+01 0.23192170120E+01 0.21714970936E+01 0.20415747570E+01 0.19334994329E+01
 0.18481964638E+01 0.17843711644E+01 0.17394025977E+01 0.17099635179E+01 0.16924625309E+01
 0.16835687396E+01 0.16808872739E+01 0.16835550728E+01 0.16924583686E+01 0.20928684298E+01
 0.20936433777E+01 0.21047464404E+01 0.21305364219E+01 0.21743554044E+01 0.22376637502E+01
 0.23192189411E+01 0.24146510497E+01 0.25166924720E+01 0.26160261890E+01 0.27025119515E+01
 0.27665846872E+01 0.28007109090E+01 0.28007093253E+01 0.27665771709E+01 0.27024990865E+01
 0.26160236096E+01 0.25167193676E+01 0.24146996311E+01 0.23192486712E+01 0.22376437784E+01
 0.21743056729E+01 0.21305049015E+01 0.21047490683E+01 0.20936526542E+01 0.20928622220E+01
 0.20977539658E+01 0.21039778975E+01 0.21080608064E+01 0.21080570205E+01 0.21039768021E+01
 0.20977640605E+01 0.25629216869E+01 0.25166932491E+01 0.24770768494E+01 0.24503516931E+01
 0.24409135994E+01 0.24503508276E+01 0.24770761212E+01 0.25166924720E+01 0.25629195991E+01
 0.26087074344E+01 0.26472600177E+01 0.26729157174E+01 0.26819066074E+01 0.26729148453E+01
 0.26472689763E+01 0.26087234912E+01 0.25629227596E+01 0.25166736929E+01 0.24770532991E+01
 0.24503441118E+01 0.24409160689E+01 0.24503404117E+01 0.24770476282E+01 0.25166671598E+01
 0.25629156285E+01 0.26087171025E+01 0.26472653994E+01 0.26729143927E+01 0.26819078059E+01
 0.26729177550E+01 0.26472630792E+01 0.26087107696E+01 0.31188488851E+01 0.30023970580E+01
 0.28920250126E+01 0.27965581282E+01 0.27213684697E+01 0.26678791982E+01 0.26341293036E+01
 0.26160261890E+01 0.26087074344E+01 0.26075899498E+01 0.26089766978E+01 0.26103201727E+01
 0.26103225156E+01 0.26089841142E+01 0.26076057056E+01 0.26087305656E+01 0.26160365678E+01
 0.26341023023E+01 0.26678270084E+01 0.27213405469E+01 0.27965808897E+01 0.28920641656E+01
 0.30024026584E+01 0.31188180192E+01 0.32304814640E+01 0.33262327900E+01 0.33962110203E+01
 0.34331270240E+01 0.34331201226E+01 0.33961993507E+01 0.33262372019E+01 0.32305113830E+01
 0.37479796093E+01 0.35345211843E+01 0.33317268143E+01 0.31510498726E+01 0.29983769644E+01
 0.28745452236E+01 0.27771397527E+01 0.27025119515E+01 0.26472600177E+01 0.26089766978E+01
 0.25863561369E+01 0.25788716890E+01 0.25863786458E+01 0.26089831729E+01 0.26472434332E+01
 0.27025081781E+01 0.27771633517E+01 0.28745684507E+01 0.29983806271E+01 0.31510456655E+01
 0.33317228280E+01 0.35345117716E+01 0.37479730470E+01 0.39563572768E+01 0.41420855039E+01
 0.42885150717E+01 0.43822051810E+01 0.44144552002E+01 0.43822315505E+01 0.42885287068E+01
 0.41420733005E+01 0.39563466511E+01 0.44224178392E+01 0.40845287648E+01 0.37688277505E+01
 0.34887969003E+01 0.32500390938E+01 0.30522468549E+01 0.28922475147E+01 0.27665846872E+01
 0.26729157174E+01 0.26103201727E+01 0.25788716890E+01 0.25788815026E+01 0.26103332197E+01
 0.26729095465E+01 0.27665649169E+01 0.28922376547E+01 0.30522623530E+01 0.32500798925E+01
 0.34888404093E+01 0.37688284648E+01 0.40844650614E+01 0.44223419268E+01 0.47615381730E+01
 0.50763561088E+01 0.53404186634E+01 0.55306558302E+01 0.56302259895E+01 0.56302561792E+01
 0.55306941072E+01 0.53403973917E+01 0.50763087923E+01 0.47615494124E+01 0.50981062736E+01
 0.46120617784E+01 0.41679983898E+01 0.37801266801E+01 0.34525827184E+01 0.31830877088E+01
 0.29670930625E+01 0.28007109090E+01 0.26819066074E+01 0.26103225156E+01 0.25863786458E+01
 0.26103332197E+01 0.26819076556E+01 0.28006999726E+01 0.29670935023E+01 0.31831083151E+01
 0.34525970958E+01 0.37801107564E+01 0.41679677384E+01 0.46120476771E+01 0.50981070664E+01
 0.56006884799E+01 0.60854741086E+01 0.65142264512E+01 0.68505650979E+01 0.70650388582E+01
 0.71386948269E+01 0.70650323952E+01 0.68505790343E+01 0.65142697535E+01 0.60855179702E+01
 0.56007043232E+01 0.57181645927E+01 0.50690925766E+01 0.44904449058E+01 0.39951815374E+01
 0.35843591749E+01 0.32525787634E+01 0.29930649436E+01 0.28007093253E+01 0.26729148453E+01
 0.26089841142E+01 0.26089831729E+01 0.26729095465E+01 0.28006999726E+01 0.29930653794E+01
 0.32526040062E+01 0.35843927144E+01 0.39951770046E+01 0.44903885753E+01 0.50690439793E+01
 0.57181887541E+01 0.64096776683E+01 0.71013097018E+01 0.77420780585E+01 0.82795178695E+01
 0.86670349463E+01 0.88699903952E+01 0.88699910220E+01 0.86670632681E+01 0.82795909938E+01
 0.77421369839E+01 0.71012885912E+01 0.64096083727E+01 0.62205413214E+01 0.54073877835E+01
 0.47006860453E+01 0.41095685414E+01 0.36301308844E+01 0.32525879359E+01 0.29670775076E+01
 0.27665771709E+01 0.26472689763E+01 0.26076057056E+01 0.26472434332E+01 0.27665649169E+01
 0.29670935023E+01 0.32526040062E+01 0.36301269283E+01 0.41095626632E+01 0.47006988924E+01
 0.54074103645E+01 0.62205561328E+01 0.71125354551E+01 0.80362785591E+01 0.89294497987E+01
 0.97223650718E+01 0.10347309090E+02 0.10747601983E+02 0.10885463560E+02 0.10747610366E+02
 0.10347320671E+02 0.97223700820E+01 0.89294442170E+01 0.80362696438E+01 0.71125274508E+01
 0.65486906249E+01 0.55876164768E+01 0.47737621688E+01 0.41095543273E+01 0.35843805777E+01
 0.31831083750E+01 0.28922389970E+01 0.27024990865E+01 0.26087234912E+01 0.26087305656E+01
 0.27025081781E+01 0.28922376547E+01 0.31831083151E+01 0.35843927144E+01 0.41095626632E+01
 0.47737551046E+01 0.55876237380E+01 0.65487445792E+01 0.76338847139E+01 0.87956368054E+01
 0.99647678466E+01 0.11057037789E+02 0.11982515911E+02 0.12656555898E+02 0.13012190888E+02
 0.13012133541E+02 0.12656452550E+02 0.11982487125E+02 0.11057109053E+02 0.99648468216E+01
 0.87956348572E+01 0.76338177086E+01 0.66628351203E+01 0.55876243823E+01 0.47006854010E+01
 0.39951562311E+01 0.34525857677E+01 0.30522578028E+01 0.27771527436E+01 0.26160236096E+01
 0.25629227596E+01 0.26160365678E+01 0.27771633517E+01 0.30522623530E+01 0.34525970958E+01
 0.39951770046E+01 0.47006988924E+01 0.55876237380E+01 0.66628414364E+01 0.79118679470E+01
 0.92926850075E+01 0.10735596122E+02 0.12148054259E+02 0.13421984605E+02 0.14443498140E+02
 0.15107446260E+02 0.15337730137E+02 0.15107417548E+02 0.14443485173E+02 0.13422012238E+02
 0.12148091367E+02 0.10735597695E+02 0.92926510002E+01 0.79118369979E+01 0.65486452706E+01
 0.54073882604E+01 0.44904517897E+01 0.37801247466E+01 0.32500034233E+01 0.28745221077E+01
 0.26341533966E+01 0.25167193676E+01 0.25166736929E+01 0.26341023023E+01 0.28745684507E+01
 0.32500798925E+01 0.37801107564E+01 0.44903885753E+01 0.54074103645E+01 0.65487445792E+01
 0.79118679470E+01 0.94657120193E+01 0.11147830588E+02 0.12866505738E+02 0.14504645750E+02
 0.15923674541E+02 0.16970575989E+02 0.17525192548E+02 0.17525265880E+02 0.16970693782E+02
 0.15923668856E+02 0.14504512897E+02 0.12866410921E+02 0.11147873445E+02 0.94657882972E+01
 0.79118365709E+01 0.62204928389E+01 0.50690507102E+01 0.41680123571E+01 0.34888322680E+01
 0.29983313726E+01 0.26678226958E+01 0.24770915658E+01 0.24146996311E+01 0.24770532991E+01
 0.26678270084E+01 0.29983806271E+01 0.34888404093E+01 0.41679677384E+01 0.50690439793E+01
 0.62205561328E+01 0.76338847139E+01 0.92926850075E+01 0.11147830588E+02 0.13117542044E+02
 0.15088140675E+02 0.16904949002E+02 0.18371664435E+02 0.19323268674E+02 0.19652897813E+02
 0.19323242466E+02 0.18371635402E+02 0.16904913867E+02 0.15088089472E+02 0.13117508572E+02
 0.11147841896E+02 0.92926908827E+01 0.76338311926E+01 0.57181469665E+01 0.46119860301E+01
 0.37688341185E+01 0.31510963105E+01 0.27213498741E+01 0.24502968493E+01 0.23192170120E+01
 0.23192486712E+01 0.24503441118E+01 0.27213405469E+01 0.31510456655E+01 0.37688284648E+01
 0.46120476771E+01 0.57181887541E+01 0.71125354551E+01 0.87956368054E+01 0.10735596122E+02
 0.12866505738E+02 0.15088140675E+02 0.17248474209E+02 0.19124414959E+02 0.20508678323E+02
 0.21244219617E+02 0.21244126613E+02 0.20508533078E+02 0.19124409341E+02 0.17248570441E+02
 0.15088158298E+02 0.12866412747E+02 0.10735531539E+02 0.87956691616E+01 0.71125711880E+01
 0.50981110387E+01 0.40844687237E+01 0.33317161691E+01 0.27965749687E+01 0.24409188946E+01
 0.22376494124E+01 0.21714970936E+01 0.22376437784E+01 0.24409160689E+01 0.27965808897E+01
 0.33317228280E+01 0.40844650614E+01 0.50981070664E+01 0.64096776683E+01 0.80362785591E+01
 0.99647678466E+01 0.12148054259E+02 0.14504645750E+02 0.16904949002E+02 0.19124414959E+02
 0.20923007692E+02 0.22098039668E+02 0.22507173693E+02 0.22098065535E+02 0.20922984279E+02
 0.19124326830E+02 0.16904881086E+02 0.14504661724E+02 0.12148110966E+02 0.99647904525E+01
 0.80362609932E+01 0.64096628755E+01 0.44224150160E+01 0.35345113393E+01 0.28920115225E+01
 0.24503291897E+01 0.21743531112E+01 0.20416067786E+01 0.20415747570E+01 0.21743056729E+01
 0.24503404117E+01 0.28920641656E+01 0.35345117716E+01 0.44223419268E+01 0.56006884799E+01
 0.71013097018E+01 0.89294497987E+01 0.11057037789E+02 0.13421984605E+02 0.15923674541E+02
 0.18371664435E+02 0.20508678323E+02 0.22098039668E+02 0.22948405892E+02 0.22948451849E+02
 0.22098056403E+02 0.20508525958E+02 0.18371464400E+02 0.15923652998E+02 0.13422131482E+02
 0.11057136530E+02 0.89294072440E+01 0.71012541221E+01 0.56007301838E+01 0.37479578325E+01
 0.30024223367E+01 0.24770833367E+01 0.21305038328E+01 0.19334711222E+01 0.18695458503E+01
 0.19334994329E+01 0.21305049015E+01 0.24770476282E+01 0.30024026584E+01 0.37479730470E+01
 0.47615381730E+01 0.60854741086E+01 0.77420780585E+01 0.97223650718E+01 0.11982515911E+02
 0.14443498140E+02 0.16970575989E+02 0.19323268674E+02 0.21244219617E+02 0.22507173693E+02
 0.22948451849E+02 0.22507100521E+02 0.21244125944E+02 0.19323219735E+02 0.16970588333E+02
 0.14443527703E+02 0.11982525653E+02 0.97223748172E+01 0.77421138264E+01 0.60855081435E+01
 0.47615344552E+01 0.31188238175E+01 0.25167165710E+01 0.21047718325E+01 0.18481675430E+01
 0.17249745841E+01 0.17249983848E+01 0.18481964638E+01 0.21047490683E+01 0.25166671598E+01
 0.31188180192E+01 0.39563572768E+01 0.50763561088E+01 0.65142264512E+01 0.82795178695E+01
 0.10347309090E+02 0.12656555898E+02 0.15107446260E+02 0.17525192548E+02 0.19652897813E+02
 0.21244126613E+02 0.22098065535E+02 0.22098056403E+02 0.21244125944E+02 0.19652936720E+02
 0.17525242759E+02 0.15107454750E+02 0.12656530043E+02 0.10347312339E+02 0.82795719715E+01
 0.65142718033E+01 0.50763398725E+01 0.39563162372E+01 0.25629125183E+01 0.20936505865E+01
 0.17843825584E+01 0.16085911081E+01 0.15515295122E+01 0.16085764872E+01 0.17843711644E+01
 0.20936526542E+01 0.25629156285E+01 0.32304814640E+01 0.41420855039E+01 0.53404186634E+01
 0.68505650979E+01 0.86670349463E+01 0.10747601983E+02 0.13012190888E+02 0.15337730137E+02
 0.17525265880E+02 0.19323242466E+02 0.20508533078E+02 0.20922984279E+02 0.20508525958E+02
 0.19323219735E+02 0.17525242759E+02 0.15337741372E+02 0.13012242707E+02 0.10747656593E+02
 0.86670581567E+01 0.68505665494E+01 0.53404274778E+01 0.41421055358E+01 0.32304933139E+01
 0.20928775276E+01 0.17394190814E+01 0.15189076240E+01 0.14129559672E+01 0.14129672947E+01
 0.15189169148E+01 0.17394025977E+01 0.20928622220E+01 0.26087171025E+01 0.33262327900E+01
 0.42885150717E+01 0.55306558302E+01 0.70650388582E+01 0.88699903952E+01 0.10885463560E+02
 0.13012133541E+02 0.15107417548E+02 0.16970693782E+02 0.18371635402E+02 0.19124409341E+02
 0.19124326830E+02 0.18371464400E+02 0.16970588333E+02 0.15107454750E+02 0.13012242707E+02
 0.10885525646E+02 0.88699838130E+01 0.70650374601E+01 0.55306985505E+01 0.42885556599E+01
 0.33262326922E+01 0.26087077290E+01 0.17099920969E+01 0.14534181174E+01 0.13072222484E+01
 0.12597455540E+01 0.13072514722E+01 0.14534224481E+01 0.17099635179E+01 0.20977539658E+01
 0.26472653994E+01 0.33962110203E+01 0.43822051810E+01 0.56302259895E+01 0.71386948269E+01
 0.88699910220E+01 0.10747610366E+02 0.12656452550E+02 0.14443485173E+02 0.15923668856E+02
 0.16904913867E+02 0.17248570441E+02 0.16904881086E+02 0.15923652998E+02 0.14443527703E+02
 0.12656530043E+02 0.10747656593E+02 0.88699838130E+01 0.71386841142E+01 0.56302514966E+01
 0.43822330762E+01 0.33961974846E+01 0.26472373734E+01 0.20977624280E+01 0.14088035899E+01
 0.12311624955E+01 0.11456497888E+01 0.11456430957E+01 0.12311532916E+01 0.14088072015E+01
 0.16924625309E+01 0.21039778975E+01 0.26729143927E+01 0.34331270240E+01 0.44144552002E+01
 0.56302561792E+01 0.70650323952E+01 0.86670632681E+01 0.10347320671E+02 0.11982487125E+02
 0.13422012238E+02 0.14504512897E+02 0.15088089472E+02 0.15088158298E+02 0.14504661724E+02
 0.13422131482E+02 0.11982525653E+02 0.10347312339E+02 0.86670581567E+01 0.70650374601E+01
 0.56302514966E+01 0.44144374906E+01 0.34331113794E+01 0.26729058499E+01 0.21039672965E+01
 0.16924491735E+01 0.11808258508E+01 0.10662269525E+01 0.10289904017E+01 0.10662159108E+01
 0.11808254245E+01 0.13816198286E+01 0.16835687396E+01 0.21080608064E+01 0.26819078059E+01
 0.34331201226E+01 0.43822315505E+01 0.55306941072E+01 0.68505790343E+01 0.82795909938E+01
 0.97223700820E+01 0.11057109053E+02 0.12148091367E+02 0.12866410921E+02 0.13117508572E+02
 0.12866412747E+02 0.12148110966E+02 0.11057136530E+02 0.97223748172E+01 0.82795719715E+01
 0.68505665494E+01 0.55306985505E+01 0.43822330762E+01 0.34331113794E+01 0.26819039185E+01
 0.21080635975E+01 0.16835627581E+01 0.13816074434E+01 0.10167221630E+01 0.95141521186E+00
 0.95141444711E+00 0.10167261870E+01 0.11525108095E+01 0.13688993095E+01 0.16808872739E+01
 0.21080570205E+01 0.26729177550E+01 0.33961993507E+01 0.42885287068E+01 0.53403973917E+01
 0.65142697535E+01 0.77421369839E+01 0.89294442170E+01 0.99648468216E+01 0.10735597695E+02
 0.11147873445E+02 0.11147841896E+02 0.10735531539E+02 0.99647904525E+01 0.89294072440E+01
 0.77421138264E+01 0.65142718033E+01 0.53404274778E+01 0.42885556599E+01 0.33961974846E+01
 0.26729058499E+01 0.21080635975E+01 0.16809037754E+01 0.13689016598E+01 0.11525016223E+01
 0.90749959967E+00 0.87972865766E+00 0.90749397962E+00 0.99314478944E+00 0.11434197977E+01
 0.13689031057E+01 0.16835550728E+01 0.21039768021E+01 0.26472630792E+01 0.33262372019E+01
 0.41420733005E+01 0.50763087923E+01 0.60855179702E+01 0.71012885912E+01 0.80362696438E+01
 0.87956348572E+01 0.92926510002E+01 0.94657882972E+01 0.92926908827E+01 0.87956691616E+01
 0.80362609932E+01 0.71012541221E+01 0.60855081435E+01 0.50763398725E+01 0.41421055358E+01
 0.33262326922E+01 0.26472373734E+01 0.21039672965E+01 0.16835627581E+01 0.13689016598E+01
 0.11434059928E+01 0.99313922389E+00 0.84549056274E+00 0.84548897057E+00 0.89333219886E+00
 0.99314455992E+00 0.11525143613E+01 0.13816220915E+01 0.16924583686E+01 0.20977640605E+01
 0.26087107696E+01 0.32305113830E+01 0.39563466511E+01 0.47615494124E+01 0.56007043232E+01
 0.64096083727E+01 0.71125274508E+01 0.76338177086E+01 0.79118369979E+01 0.79118365709E+01
 0.76338311926E+01 0.71125711880E+01 0.64096628755E+01 0.56007301838E+01 0.47615344552E+01
 0.39563162372E+01 0.32304933139E+01 0.26087077290E+01 0.20977624280E+01 0.16924491735E+01
 0.13816074434E+01 0.11525016223E+01 0.99313922389E+00 0.89333335272E+00 0.84548937023E+00
 0.87972678886E+00 0.95141154586E+00 0.10662182466E+01 0.12311488984E+01 0.14534074843E+01
 0.17394157266E+01 0.20936438609E+01 0.25166943835E+01 0.30023982177E+01 0.35345214924E+01
 0.40845291690E+01 0.46120634141E+01 0.50690944735E+01 0.54073885432E+01 0.55876168931E+01
 0.55876260921E+01 0.54073911109E+01 0.50690536807E+01 0.46119893042E+01 0.40844724466E+01
 0.35345136435E+01 0.30024210322E+01 0.25167117608E+01 0.20936436657E+01 0.17394106525E+01
 0.14534090553E+01 0.12311554116E+01 0.10662239802E+01 0.95141543996E+00 0.87972990713E+00
 0.84549077689E+00 0.87972678886E+00 0.92217461239E+00 0.99737194581E+00 0.11108243087E+01
 0.12684263807E+01 0.14754088154E+01 0.17354290191E+01 0.20495394621E+01 0.24146512628E+01
 0.28214149618E+01 0.32521206191E+01 0.36798370881E+01 0.40700039002E+01 0.43848812478E+01
 0.45900692822E+01 0.46613805656E+01 0.45900747156E+01 0.43848545086E+01 0.40699425076E+01
 0.36797946003E+01 0.32521336617E+01 0.28214486286E+01 0.24146493927E+01 0.20495036180E+01
 0.17354097105E+01 0.14754298814E+01 0.12684575043E+01 0.11108322581E+01 0.99736433524E+00
 0.92217605760E+00 0.87973676171E+00 0.86606717345E+00 0.95141154586E+00 0.99737194581E+00
 0.10717220943E+01 0.11793990720E+01 0.13249953340E+01 0.15118764937E+01 0.17414585375E+01
 0.20123669548E+01 0.23192191876E+01 0.26511261251E+01 0.29905430584E+01 0.33134394824E+01
 0.35915351560E+01 0.37965550704E+01 0.39055169116E+01 0.39055162706E+01 0.37965535769E+01
 0.35915366654E+01 0.33134501934E+01 0.29905614250E+01 0.26511399007E+01 0.23192194697E+01
 0.20123598304E+01 0.17414559362E+01 0.15118806568E+01 0.13249995774E+01 0.11793993407E+01
 0.10717199969E+01 0.99736929411E+00 0.95140884066E+00 0.92963982816E+00 0.92964112031E+00
 0.10662182466E+01 0.11108243087E+01 0.11793990720E+01 0.12761475038E+01 0.14044768887E+01
 0.15663356676E+01 0.17616522846E+01 0.19876109952E+01 0.22376647968E+01 0.25005570050E+01
 0.27599591542E+01 0.29953819014E+01 0.31846621994E+01 0.33076835471E+01 0.33503591708E+01
 0.33076487857E+01 0.31846446204E+01 0.29954139728E+01 0.27600085914E+01 0.25005686521E+01
 0.22376315884E+01 0.19875790795E+01 0.17616583670E+01 0.15663639372E+01 0.14044874396E+01
 0.12761285443E+01 0.11793739026E+01 0.11108162097E+01 0.10662266821E+01 0.10414870761E+01
 0.10336013650E+01 0.10414771832E+01 0.12311488984E+01 0.12684263807E+01 0.13249953340E+01
 0.14044768887E+01 0.15095129710E+01 0.16412703594E+01 0.17989159559E+01 0.19789294540E+01
 0.21743558852E+01 0.23743503319E+01 0.25644664789E+01 0.27280131491E+01 0.28484609958E+01
 0.29124286904E+01 0.29124205980E+01 0.28484487128E+01 0.27280134934E+01 0.25644740116E+01
 0.23743447442E+01 0.21743317809E+01 0.19789038488E+01 0.17989053973E+01 0.16412725205E+01
 0.15095145806E+01 0.14044712517E+01 0.13249866983E+01 0.12684217142E+01 0.12311503846E+01
 0.12092265669E+01 0.11992518740E+01 0.11992496555E+01 0.12092222182E+01 0.14534074843E+01
 0.14754088154E+01 0.15118764937E+01 0.15663356676E+01 0.16412703594E+01 0.17376497412E+01
 0.18543605154E+01 0.19876103353E+01 0.21305357796E+01 0.22732810004E+01 0.24037452917E+01
 0.25090675562E+01 0.25776890230E+01 0.26015402610E+01 0.25777158171E+01 0.25091001992E+01
 0.24037523159E+01 0.22732505181E+01 0.21304969387E+01 0.19876049753E+01 0.18543901018E+01
 0.17376718096E+01 0.16412552570E+01 0.15663049774E+01 0.15118699108E+01 0.14754295755E+01
 0.14534223122E+01 0.14418045418E+01 0.14367381551E+01 0.14354082687E+01 0.14367593223E+01
 0.14418168350E+01 0.17394157266E+01 0.17354290191E+01 0.17414585375E+01 0.17616522846E+01
 0.17989159559E+01 0.18543605154E+01 0.19267844581E+01 0.20123669371E+01 0.21047461141E+01
 0.21955403943E+01 0.22752915014E+01 0.23347857625E+01 0.23666127115E+01 0.23666199418E+01
 0.23348033379E+01 0.22753073632E+01 0.21955430216E+01 0.21047401830E+01 0.20123715518E+01
 0.19268076723E+01 0.18543856572E+01 0.17989236099E+01 0.17616463654E+01 0.17414576050E+01
 0.17354383914E+01 0.17394224140E+01 0.17485827960E+01 0.17581032595E+01 0.17640062540E+01
 0.17640132506E+01 0.17581172011E+01 0.17485893689E+01 0.20936438609E+01 0.20495394621E+01
 0.20123669548E+01 0.19876109952E+01 0.19789294540E+01 0.19876103353E+01 0.20123669371E+01
 0.20495401103E+01 0.20936439793E+01 0.21381172166E+01 0.21761903151E+01 0.22018605354E+01
 0.22109268132E+01 0.22018618801E+01 0.21761803966E+01 0.21381018194E+01 0.20936501670E+01
 0.20495750963E+01 0.20123959911E+01 0.19875982808E+01 0.19788921671E+01 0.19875985291E+01
 0.20123971251E+01 0.20495759991E+01 0.20936484149E+01 0.21380969060E+01 0.21761742023E+01
 0.22018559188E+01 0.22109213945E+01 0.22018564680E+01 0.21761886897E+01 0.21381173100E+01
 0.25166943835E+01 0.24146512628E+01 0.23192191876E+01 0.22376647968E+01 0.21743558852E+01
 0.21305357796E+01 0.21047461141E+01 0.20936439793E+01 0.20928687407E+01 0.20977640518E+01
 0.21039786776E+01 0.21080618946E+01 0.21080670553E+01 0.21039839262E+01 0.20977597889E+01
 0.20928672500E+01 0.20936549558E+01 0.21047481879E+01 0.21305026634E+01 0.21743030149E+01
 0.22376395272E+01 0.23192424655E+01 0.24146931179E+01 0.25167134042E+01 0.26160172806E+01
 0.27024926915E+01 0.27665731721E+01 0.28007089510E+01 0.28007125498E+01 0.27665868073E+01
 0.27025147684E+01 0.26160294047E+01 0.30023982177E+01 0.28214149618E+01 0.26511261251E+01
 0.25005570050E+01 0.23743503319E+01 0.22732810004E+01 0.21955403943E+01 0.21381172166E+01
 0.20977640518E+01 0.20714906953E+01 0.20568352859E+01 0.20521392164E+01 0.20568229344E+01
 0.20714945981E+01 0.20978006905E+01 0.21381516036E+01 0.21955105287E+01 0.22731804493E+01
 0.23742608803E+01 0.25005633726E+01 0.26512140130E+01 0.28214932428E+01 0.30024111115E+01
 0.31812355309E+01 0.33429165381E+01 0.34721527302E+01 0.35557205792E+01 0.35846358513E+01
 0.35557144462E+01 0.34721513991E+01 0.33429348286E+01 0.31812620838E+01 0.35345214924E+01
 0.32521206191E+01 0.29905430584E+01 0.27599591542E+01 0.25644664789E+01 0.24037452917E+01
 0.22752915014E+01 0.21761903151E+01 0.21039786776E+01 0.20568352859E+01 0.20335537705E+01
 0.20335399544E+01 0.20568206455E+01 0.21040021684E+01 0.21762306374E+01 0.22752686631E+01
 0.24036228328E+01 0.25643300334E+01 0.27599406753E+01 0.29906649387E+01 0.32522682641E+01
 0.35345841396E+01 0.38213075130E+01 0.40913043269E+01 0.43212597202E+01 0.44891473113E+01
 0.45777916503E+01 0.45777814782E+01 0.44891237547E+01 0.43212474480E+01 0.40913234858E+01
 0.38213230306E+01 0.40845291690E+01 0.36798370881E+01 0.33134394824E+01 0.29953819014E+01
 0.27280131491E+01 0.25090675562E+01 0.23347857625E+01 0.22018605354E+01 0.21080618946E+01
 0.20521392164E+01 0.20335399544E+01 0.20521414423E+01 0.21080912132E+01 0.22018875399E+01
 0.23347244927E+01 0.25088960182E+01 0.27278478380E+01 0.29953683175E+01 0.33135822112E+01
 0.36799977949E+01 0.40845947343E+01 0.45082413806E+01 0.49233237550E+01 0.52966766592E+01
 0.55942179851E+01 0.57863078524E+01 0.58527380644E+01 0.57863148901E+01 0.55942064425E+01
 0.52966544776E+01 0.49233261700E+01 0.45082496483E+01 0.46120634141E+01 0.40700039002E+01
 0.35915351560E+01 0.31846621994E+01 0.28484609958E+01 0.25776890230E+01 0.23666127115E+01
 0.22109268132E+01 0.21080670553E+01 0.20568229344E+01 0.20568206455E+01 0.21080912132E+01
 0.22109759931E+01 0.23665697138E+01 0.25774725886E+01 0.28482081103E+01 0.31846127912E+01
 0.35917356259E+01 0.40702479902E+01 0.46121513653E+01 0.51973589891E+01 0.57928050113E+01
 0.63548815233E+01 0.68348497463E+01 0.71861119393E+01 0.73719189579E+01 0.73719409734E+01
 0.71861411483E+01 0.68348429232E+01 0.63548747916E+01 0.57928549211E+01 0.51974100567E+01
 0.50690944735E+01 0.43848812478E+01 0.37965550704E+01 0.33076835471E+01 0.29124286904E+01
 0.26015402610E+01 0.23666199418E+01 0.22018618801E+01 0.21039839262E+01 0.20714945981E+01
 0.21040021684E+01 0.22018875399E+01 0.23665697138E+01 0.26013361820E+01 0.29121683152E+01
 0.33076016920E+01 0.37967507697E+01 0.43851801459E+01 0.50692537572E+01 0.58306835670E+01
 0.66335085556E+01 0.74250844169E+01 0.81412915611E+01 0.87150904247E+01 0.90870515998E+01
 0.92159814532E+01 0.90870861737E+01 0.87151115713E+01 0.81412873037E+01 0.74251100415E+01
 0.66335872110E+01 0.58307106631E+01 0.54073885432E+01 0.45900692822E+01 0.39055169116E+01
 0.33503591708E+01 0.29124205980E+01 0.25777158171E+01 0.23348033379E+01 0.21761803966E+01
 0.20977597889E+01 0.20978006905E+01 0.21762306374E+01 0.23347244927E+01 0.25774725886E+01
 0.29121683152E+01 0.33503200174E+01 0.39057457227E+01 0.45903804228E+01 0.54075489316E+01
 0.63443833312E+01 0.73661389483E+01 0.84148130546E+01 0.94129355689E+01 0.10272079951E+02
 0.10905251966E+02 0.11241803439E+02 0.11241821571E+02 0.10905274443E+02 0.10272062534E+02
 0.94129035569E+01 0.84148438641E+01 0.73662384814E+01 0.63444218311E+01 0.55876168931E+01
 0.46613805656E+01 0.39055162706E+01 0.33076487857E+01 0.28484487128E+01 0.25091001992E+01
 0.22753073632E+01 0.21381018194E+01 0.20928672500E+01 0.21381516036E+01 0.22752686631E+01
 0.25088960182E+01 0.28482081103E+01 0.33076016920E+01 0.39057457227E+01 0.46617182707E+01
 0.55878061408E+01 0.66802227662E+01 0.79106537883E+01 0.92217443466E+01 0.10528126956E+02
 0.11723023671E+02 0.12690394858E+02 0.13322825096E+02 0.13543078861E+02 0.13322853636E+02
 0.12690393157E+02 0.11722976793E+02 0.10528116729E+02 0.92218541990E+01 0.79108290717E+01
 0.66802790860E+01 0.55876260921E+01 0.45900747156E+01 0.37965535769E+01 0.31846446204E+01
 0.27280134934E+01 0.24037523159E+01 0.21955430216E+01 0.20936501670E+01 0.20936549558E+01
 0.21955105287E+01 0.24036228328E+01 0.27278478380E+01 0.31846127912E+01 0.37967507697E+01
 0.45903804228E+01 0.55878061408E+01 0.67971559040E+01 0.82015503965E+01 0.97513662097E+01
 0.11361728706E+02 0.12915433358E+02 0.14271839605E+02 0.15284278931E+02 0.15827225305E+02
 0.15827242271E+02 0.15284316172E+02 0.14271866374E+02 0.12915441821E+02 0.11361770544E+02
 0.97515005719E+01 0.82017269973E+01 0.67972081018E+01 0.54073911109E+01 0.43848545086E+01
 0.35915366654E+01 0.29954139728E+01 0.25644740116E+01 0.22732505181E+01 0.21047401830E+01
 0.20495750963E+01 0.21047481879E+01 0.22731804493E+01 0.25643300334E+01 0.29953683175E+01
 0.35917356259E+01 0.43851801459E+01 0.54075489316E+01 0.66802227662E+01 0.82015503965E+01
 0.99361486107E+01 0.11808835960E+02 0.13703307871E+02 0.15465524404E+02 0.16915888908E+02
 0.17876677386E+02 0.18213690123E+02 0.17876669974E+02 0.16915954869E+02 0.15465636496E+02
 0.13703341768E+02 0.11808802719E+02 0.99362169485E+01 0.82017585366E+01 0.66803477127E+01
 0.50690536807E+01 0.40699425076E+01 0.33134501934E+01 0.27600085914E+01 0.23743447442E+01
 0.21304969387E+01 0.20123715518E+01 0.20123959911E+01 0.21305026634E+01 0.23742608803E+01
 0.27599406753E+01 0.33135822112E+01 0.40702479902E+01 0.50692537572E+01 0.63443833312E+01
 0.79106537883E+01 0.97513662097E+01 0.11808835960E+02 0.13979213374E+02 0.16110188674E+02
 0.18004851381E+02 0.19440741574E+02 0.20216587813E+02 0.20216550519E+02 0.19440733413E+02
 0.18004981504E+02 0.16110337169E+02 0.13979211764E+02 0.11808770502E+02 0.97514613621E+01