    2    2   15    1
  0.2001288E+02  0.3839590E-09  0.3839590E-09  0.3839590E-09  0.5000000E-15
  1.000000000000000E-004
  CAR 
 unknown system                          
      8     10      8
 
  0.1250000E+00  0.1250000E+00  0.1250000E+00  0.3125000E-01
    1       -5.926732   1.000000
    2        4.233063   1.000000
    3        5.541624   0.999982
    4        5.541624   0.999982
    5        8.336759   0.000000
    6        8.821815   0.000000
    7        8.821815   0.000000
    8       10.549732   0.000000
 
  0.3750000E+00  0.1250000E+00  0.1250000E+00  0.9375000E-01
    1       -4.880165   1.000000
    2        1.206524   1.000000
    3        3.520792   1.000000
    4        5.057115   1.000000
    5        8.553772   0.000000
    6        9.511625   0.000000
    7        9.688229   0.000000
    8       12.133126   0.000000
 
 -0.3750000E+00  0.1250000E+00  0.1250000E+00  0.9375000E-01
    1       -3.711714   1.000000
    2       -0.916884   1.000000
    3        3.551866   1.000000
    4        4.269359   1.000000
    5        8.026867   0.000000
    6        9.347685   0.000000
    7        9.933731   0.000000
    8       13.203572   0.000000
 
 -0.1250000E+00  0.1250000E+00  0.1250000E+00  0.9375000E-01
    1       -5.389029   1.000000
    2        2.608145   1.000000
    3        4.512731   1.000000
    4        4.588970   1.000000
    5        7.980178   0.000000
    6        9.544364   0.000000
    7       10.302045   0.000000
    8       10.582997   0.000000
 
  0.3750000E+00  0.3750000E+00  0.1250000E+00  0.9375000E-01
    1       -4.338194   1.000000
    2        0.891870   1.000000
    3        3.160805   1.000000
    4        3.623578   1.000000
    5        7.181846   0.000000
    6        8.725801   0.000000
    7       11.832628   0.000000
    8       12.103805   0.000000
 
 -0.3750000E+00  0.3750000E+00  0.1250000E+00  0.1875000E+00
    1       -2.661455   1.000000
    2       -1.099925   1.000000
    3        1.770659   1.000000
    4        2.871489   1.000000
    5        8.219535   0.000000
    6       10.111789   0.000000
    7       11.111674   0.000000
    8       13.274709   0.000000
 
 -0.1250000E+00  0.3750000E+00  0.1250000E+00  0.1875000E+00
    1       -3.912232   1.000000
    2       -0.009347   1.000000
    3        2.510444   1.000000
    4        3.902212   1.000000
    5        8.709481   0.000000
    6        9.386795   0.000000
    7       10.852338   0.000000
    8       11.770305   0.000000
 
 -0.3750000E+00 -0.3750000E+00  0.1250000E+00  0.9375000E-01
    1       -2.837765   1.000000
    2       -0.997937   1.000000
    3        2.395630   1.000000
    4        3.149130   1.000000
    5        6.724542   0.000012
    6        7.797868   0.000000
    7       14.102116   0.000000
    8       14.190999   0.000000
 
  0.3750000E+00  0.3750000E+00  0.3750000E+00  0.3125000E-01
    1       -4.436718   1.000000
    2       -0.115646   1.000000
    3        4.744418   1.000000
    4        4.744418   1.000000
    5        7.499214   0.000000
    6        9.284255   0.000000
    7        9.284255   0.000000
    8       13.711921   0.000000
 
 -0.3750000E+00  0.3750000E+00  0.3750000E+00  0.9375000E-01
    1       -3.207221   1.000000
    2       -0.809217   1.000000
    3        1.838430   1.000000
    4        3.945189   1.000000
    5        7.675728   0.000000
    6       11.296911   0.000000
    7       11.314696   0.000000
    8       12.794752   0.000000
