unknown system                          
   1.00000000000000     
    -2.477237    2.477237    1.413610
     2.477237   -2.477237    1.413610
     2.477237    2.477237   -1.413610
   Si
     2
Direct
  0.000000  0.000000  0.000000
  0.250000  0.750000  0.500000
 
   36   36   36
 -5.7474     -4.6641     -1.7008      2.3864      6.6304      10.150      12.375      13.138      12.645      11.356    
  9.8020      8.2916      6.9424      5.8189      4.9411      4.2983      3.8658      3.6183      3.5379      3.6183    
  3.8658      4.2984      4.9412      5.8189      6.9424      8.2916      9.8020      11.356      12.645      13.138    
  12.375      10.150      6.6303      2.3864     -1.7008     -4.6641     -4.6641     -5.1472     -3.5343     -.25563    
  3.8592      7.8590      10.951      12.686      13.015      12.229      10.819      9.2742      7.8151      6.5401    
  5.4991      4.7013      4.1302      3.7601      3.5675      3.5379      3.6689      3.9703      4.4628      5.1723    
  6.1213      7.3138      8.7189      10.259      11.794      12.936      13.157      12.051      9.5059      5.7966    
  1.5860     -2.2085     -1.7008     -3.5343     -3.4364     -1.4434      1.9085      5.7744      9.2762      11.749    
  12.883      12.743      11.684      10.203      8.6949      7.3077      6.1224      5.1738      4.4611      3.9637    
  3.6562      3.5179      3.5380      3.7177      4.0702      4.6177      5.3863      6.3947      7.6398      9.0809    
  10.631      12.121      13.120      13.128      11.811      9.1474      5.5016      1.5860      2.3864     -.25565    
 -1.4434     -.86570      1.3046      4.4758      7.8452      10.654      12.389      12.882      12.297      11.026    
  9.5340      8.0855      6.7885      5.7047      4.8543      4.2283      3.8040      3.5573      3.4709      3.5380    
  3.7632      4.1620      4.7577      5.5748      6.6282      7.9077      9.3643      10.904      12.336      13.218    
  13.099      11.722      9.1474      5.7966      6.6303      3.8592      1.9085      1.3046      2.2019      4.3297    
  7.0940      9.7827      11.785      12.749      12.635      11.681      10.291      8.8355      7.4690      6.2766    
  5.3014      4.5509      4.0100      3.6554      3.4659      3.4279      3.5381      3.8039      4.2426      4.8773    
  5.7305      6.8125      8.1069      9.5589      11.071      12.442      13.248      13.099      11.811      9.5059    
  10.150      7.8590      5.7744      4.4758      4.3297      5.3604      7.2458      9.4370      11.346      12.522    
  12.764      12.141      10.936      9.5239      8.1336      6.8676      5.7895      4.9252      4.2721      3.8118    
  3.5219      3.3845      3.3899      3.5381      3.8384      4.3088      4.9717      5.8468      6.9398      8.2297    
  9.6579      11.128      12.442      13.218      13.128      12.051      12.375      10.951      9.2762      7.8453    
  7.0940      7.2458      8.2329      9.7263      11.258      12.378      12.793      12.432      11.444      10.126    
  8.7545      7.4537      6.3017      5.3420      4.5863      4.0249      3.6382      3.4064      3.3151      3.3582    
  3.5380      3.8655      4.3582      5.0371      5.9186      7.0049      8.2712      9.6579      11.071      12.336    
  13.120      13.157      13.138      12.686      11.749      10.654      9.7827      9.4370      9.7263      10.531    
  11.550      12.418      12.824      12.612      11.813      10.625      9.3092      8.0119      6.8193      5.7885    
  4.9457      4.2922      3.8142      3.4927      3.3113      3.2593      3.3335      3.5380      3.8842      4.3888    
  5.0705      5.9430      7.0049      8.2297      9.5589      10.904      12.121      12.936      12.645      13.015    
  12.883      12.389      11.785      11.346      11.258      11.550      12.088      12.624      12.897      12.725    
  12.062      11.013      9.7810      8.5220      7.3230      6.2498      5.3408      4.6088      4.0479      3.6431    
  3.3776      3.2385      3.2185      3.3166      3.5380      3.8937      4.3991      5.0705      5.9186      6.9398    
  8.1069      9.3643      10.631      11.794      11.356      12.229      12.743      12.882      12.749      12.522    
  12.378      12.418      12.624      12.870      12.975      12.778      12.201      11.281      10.157      8.9670    
  7.7952      6.7104      5.7601      4.9676      4.3362      3.8564      3.5137      3.2945      3.1893      3.1936    
  3.3080      3.5379      3.8937      4.3888      5.0371      5.8468      6.8125      7.9077      9.0809      10.259    
  9.8020      10.819      11.684      12.297      12.635      12.764      12.793      12.824      12.897      12.975    
  12.958      12.732      12.219      11.422      10.424      9.3320      8.2199      7.1557      6.1918      5.3607    
  4.6744      4.1307      3.7191      3.4270      3.2443      3.1645      3.1852      3.3080      3.5380      3.8842    
  4.3582      4.9717      5.7305      6.6282      7.6398      8.7189      8.2916      9.2742      10.203      11.026    
  11.681      12.141      12.432      12.612      12.725      12.778      12.732      12.519      12.086      11.420    
  10.569      9.6025      8.5825      7.5716      6.6244      5.7795      5.0577      4.4640      3.9935      3.6366    
  3.3836      3.2275      3.1645      3.1936      3.3166      3.5380      3.8655      4.3088      4.8773      5.5748    
  6.3947      7.3138      6.9424      7.8151      8.6949      9.5340      10.291      10.936      11.444      11.813    
  12.062      12.201      12.219      12.086      11.769      11.258      10.577      9.7639      8.8681      7.9446    
  7.0464      6.2160      5.4811      4.8546      4.3376      3.9249      3.6091      3.3836      3.2443      3.1893    
  3.2185      3.3335      3.5380      3.8384      4.2426      4.7577      5.3863      6.1213      5.8189      6.5401    
  7.3077      8.0855      8.8355      9.5239      10.126      10.625      11.013      11.281      11.422      11.420    
  11.258      10.928      10.436      9.8023      9.0619      8.2603      7.4457      6.6613      5.9398      5.3009    
  4.7528      4.2954      3.9249      3.6366      3.4270      3.2945      3.2385      3.2593      3.3582      3.5381    
  3.8039      4.1620      4.6177      5.1723      4.9412      5.4991      6.1224      6.7885      7.4690      8.1336    
  8.7545      9.3092      9.7810      10.157      10.424      10.569      10.577      10.436      10.144      9.7079    
  9.1500      8.5035      7.8082      7.1044      6.4268      5.8006      5.2406      4.7528      4.3376      3.9935    
  3.7191      3.5137      3.3776      3.3113      3.3151      3.3899      3.5381      3.7632      4.0702      4.4628    
  4.2984      4.7013      5.1738      5.7047      6.2766      6.8676      7.4537      8.0119      8.5220      8.9669    
  9.3320      9.6025      9.7639      9.8023      9.7079      9.4784      9.1223      8.6590      8.1172      7.5304    
  6.9314      6.3481      5.8006      5.3009      4.8546      4.4640      4.1307      3.8564      3.6431      3.4927    
  3.4064      3.3845      3.4279      3.5380      3.7177      3.9703      3.8658      4.1302      4.4611      4.8543    
  5.3014      5.7895      6.3017      6.8193      7.3230      7.7952      8.2199      8.5825      8.8681      9.0619    
  9.1500      9.1223      8.9751      8.7143      8.3550      7.9202      7.4367      6.9314      6.4268      5.9398    
  5.4811      5.0577      4.6744      4.3362      4.0479      3.8142      3.6382      3.5219      3.4659      3.4709    
  3.5380      3.6689      3.6183      3.7601      3.9637      4.2283      4.5509      4.9252      5.3420      5.7885    
  6.2498      6.7105      7.1557      7.5716      7.9446      8.2603      8.5035      8.6590      8.7143      8.6627    
  8.5054      8.2522      7.9202      7.5304      7.1044      6.6613      6.2160      5.7795      5.3607      4.9676    
  4.6088      4.2922      4.0249      3.8118      3.6554      3.5573      3.5179      3.5379      3.5379      3.5675    
  3.6562      3.8040      4.0100      4.2721      4.5864      4.9457      5.3408      5.7601      6.1919      6.6244    
  7.0464      7.4457      7.8082      8.1172      8.3550      8.5054      8.5570      8.5054      8.3550      8.1172    
  7.8082      7.4457      7.0464      6.6244      6.1918      5.7601      5.3408      4.9457      4.5863      4.2721    
  4.0100      3.8040      3.6562      3.5675      3.6183      3.5379      3.5179      3.5573      3.6554      3.8117    
  4.0250      4.2923      4.6088      4.9676      5.3607      5.7795      6.2160      6.6613      7.1044      7.5304    
  7.9202      8.2523      8.5054      8.6627      8.7143      8.6590      8.5035      8.2603      7.9446      7.5716    
  7.1557      6.7104      6.2498      5.7885      5.3420      4.9252      4.5509      4.2283      3.9637      3.7601    
  3.8658      3.6689      3.5379      3.4709      3.4659      3.5219      3.6382      3.8142      4.0480      4.3362    
  4.6744      5.0577      5.4811      5.9398      6.4268      6.9314      7.4367      7.9202      8.3550      8.7143    
  8.9751      9.1223      9.1500      9.0619      8.8681      8.5825      8.2199      7.7952      7.3230      6.8193    
  6.3017      5.7895      5.3014      4.8543      4.4611      4.1302      4.2983      3.9703      3.7177      3.5380    
  3.4279      3.3845      3.4063      3.4927      3.6431      3.8564      4.1307      4.4641      4.8546      5.3009    
  5.8006      6.3481      6.9314      7.5304      8.1172      8.6590      9.1223      9.4784      9.7079      9.8023    
  9.7639      9.6025      9.3320      8.9670      8.5220      8.0119      7.4537      6.8676      6.2766      5.7047    
  5.1738      4.7013      4.9411      4.4627      4.0701      3.7632      3.5380      3.3899      3.3151      3.3113    
  3.3776      3.5137      3.7191      3.9935      4.3376      4.7528      5.2406      5.8006      6.4268      7.1044    
  7.8082      8.5035      9.1500      9.7079      10.144      10.436      10.577      10.569      10.424      10.157    
  9.7810      9.3092      8.7545      8.1336      7.4690      6.7885      6.1224      5.4991      5.8189      5.1723    
  4.6177      4.1620      3.8039      3.5380      3.3581      3.2593      3.2385      3.2945      3.4270      3.6366    
  3.9249      4.2955      4.7528      5.3009      5.9398      6.6613      7.4457      8.2603      9.0619      9.8023    
  10.436      10.928      11.258      11.420      11.422      11.281      11.013      10.625      10.126      9.5239    
  8.8355      8.0855      7.3077      6.5401      6.9424      6.1213      5.3863      4.7577      4.2425      3.8384    
  3.5380      3.3334      3.2184      3.1893      3.2443      3.3836      3.6091      3.9249      4.3376      4.8546    
  5.4811      6.2160      7.0464      7.9446      8.8681      9.7639      10.577      11.258      11.769      12.086    
  12.219      12.201      12.062      11.813      11.444      10.936      10.291      9.5340      8.6949      7.8151    
  8.2916      7.3138      6.3947      5.5749      4.8773      4.3088      3.8655      3.5380      3.3165      3.1936    
  3.1645      3.2275      3.3836      3.6366      3.9935      4.4641      5.0577      5.7795      6.6244      7.5716    
  8.5825      9.6025      10.569      11.420      12.086      12.519      12.732      12.778      12.725      12.612    
  12.432      12.141      11.681      11.026      10.203      9.2742      9.8020      8.7189      7.6398      6.6282    
  5.7305      4.9717      4.3583      3.8842      3.5379      3.3079      3.1852      3.1645      3.2443      3.4270    
  3.7191      4.1307      4.6744      5.3607      6.1919      7.1557      8.2199      9.3320      10.424      11.422    
  12.219      12.732      12.958      12.975      12.897      12.824      12.793      12.764      12.635      12.297    
  11.684      10.819      11.356      10.259      9.0809      7.9077      6.8125      5.8468      5.0371      4.3888    
  3.8937      3.5379      3.3079      3.1936      3.1893      3.2945      3.5137      3.8564      4.3362      4.9676    
  5.7601      6.7105      7.7952      8.9669      10.157      11.281      12.201      12.778      12.975      12.870    
  12.624      12.418      12.378      12.522      12.749      12.882      12.743      12.229      12.645      11.794    
  10.631      9.3643      8.1070      6.9399      5.9187      5.0705      4.3991      3.8937      3.5379      3.3165    
  3.2184      3.2385      3.3776      3.6431      4.0480      4.6088      5.3408      6.2498      7.3230      8.5220    
  9.7810      11.013      12.062      12.725      12.897      12.624      12.088      11.550      11.258      11.346    
  11.785      12.389      12.883      13.015      13.138      12.936      12.121      10.904      9.5589      8.2297    
  7.0049      5.9430      5.0705      4.3888      3.8842      3.5380      3.3334      3.2593      3.3113      3.4927    
  3.8142      4.2923      4.9457      5.7885      6.8193      8.0119      9.3092      10.625      11.813      12.612    
  12.824      12.418      11.550      10.531      9.7263      9.4370      9.7827      10.654      11.749      12.686    
  12.375      13.157      13.120      12.336      11.071      9.6580      8.2712      7.0049      5.9187      5.0371    
  4.3583      3.8655      3.5380      3.3581      3.3151      3.4063      3.6382      4.0250      4.5864      5.3420    
  6.3017      7.4537      8.7545      10.126      11.444      12.432      12.793      12.378      11.258      9.7263    
  8.2329      7.2458      7.0940      7.8452      9.2762      10.951      10.150      12.051      13.128      13.218    
  12.442      11.128      9.6580      8.2297      6.9399      5.8468      4.9717      4.3088      3.8384      3.5380    
  3.3899      3.3845      3.5219      3.8117      4.2721      4.9252      5.7895      6.8676      8.1336      9.5239    
  10.936      12.141      12.764      12.522      11.346      9.4370      7.2458      5.3604      4.3297      4.4758    
  5.7744      7.8590      6.6304      9.5060      11.811      13.099      13.248      12.442      11.071      9.5589    
  8.1070      6.8125      5.7305      4.8773      4.2425      3.8039      3.5380      3.4279      3.4659      3.6554    
  4.0100      4.5509      5.3014      6.2766      7.4690      8.8355      10.291      11.681      12.635      12.749    
  11.785      9.7827      7.0940      4.3297      2.2019      1.3046      1.9085      3.8592      2.3864      5.7967    
  9.1474      11.722      13.099      13.218      12.336      10.904      9.3643      7.9077      6.6282      5.5749    
  4.7577      4.1620      3.7632      3.5380      3.4709      3.5573      3.8040      4.2283      4.8543      5.7047    
  6.7885      8.0855      9.5340      11.026      12.297      12.882      12.389      10.654      7.8453      4.4758    
  1.3046     -.86570     -1.4434     -.25563     -1.7008      1.5860      5.5016      9.1474      11.811      13.128    
  13.120      12.121      10.631      9.0809      7.6398      6.3947      5.3863      4.6177      4.0701      3.7177    
  3.5379      3.5179      3.6562      3.9637      4.4611      5.1738      6.1224      7.3077      8.6949      10.203    
  11.684      12.743      12.883      11.749      9.2762      5.7744      1.9085     -1.4434     -3.4364     -3.5343    
 -4.6641     -2.2085      1.5860      5.7967      9.5060      12.051      13.157      12.936      11.794      10.259    
  8.7189      7.3138      6.1213      5.1723      4.4627      3.9703      3.6689      3.5379      3.5675      3.7601    
  4.1302      4.7013      5.4991      6.5401      7.8151      9.2742      10.819      12.229      13.015      12.686    
  10.951      7.8590      3.8592     -.25565     -3.5343     -5.1472     -4.6641     -3.9012     -1.3073      2.4528    
  6.4753      9.8977      12.126      12.950      12.526      11.280      9.7322      8.2134      6.8472      5.7024    
  4.8022      4.1373      3.6830      3.4130      3.3079      3.3596      3.5724      3.9623      4.5541      5.3738    
  6.4366      7.7304      9.2000      10.742      12.106      12.794      12.339      10.496      7.3704      3.4567    
 -.43876     -3.3973     -3.9012     -4.6641     -3.3973     -.43875      3.4567      7.3704      10.496      12.339    
  12.794      12.106      10.742      9.2000      7.7304      6.4367      5.3738      4.5541      3.9623      3.5724    
  3.3596      3.3079      3.4130      3.6830      4.1373      4.8022      5.7024      6.8472      8.2133      9.7321    
  11.280      12.526      12.949      12.126      9.8976      6.4753      2.4528     -1.3073     -1.2170     -3.3007    
 -3.5343     -1.8661      1.2523      5.0250      8.5738      11.193      12.511      12.534      11.578      10.132    
  8.6229      7.2219      6.0161      5.0455      4.3120      3.7959      3.4711      3.3154      3.3165      3.4741    
  3.7998      4.3156      5.0482      6.0198      7.2328      8.6534      10.202      11.731      12.848      13.048    
  11.967      9.5336      6.0523      2.1795      2.6857     -.17955     -1.6856     -1.4435     0.46297      3.5079    
  6.9077      9.8739      11.833      12.550      12.133      10.950      9.4753      8.0206      6.7060      5.6003    
  4.7283      4.0834      3.6428      3.3817      3.2814      3.3334      3.5412      3.9194      4.4915      5.2837    
  6.3145      7.5790      9.0346      10.593      12.084      13.087      13.134      11.933      9.4926      6.1842    
  6.8551      3.8936      1.6479     0.70513      1.3046      3.2537      5.9994      8.8202      11.054      12.278    
  12.389      11.580      10.245      8.7929      7.4136      6.2003      5.2027      4.4318      3.8744      3.5067    
  3.3063      3.2583      3.3582      3.6124      4.0380      4.6589      5.4999      6.5750      7.8727      9.3429    
  10.893      12.337      13.257      13.239      12.059      9.7963      10.395      7.9551      5.6152      3.9946    
  3.5310      4.3297      6.1273      8.3898      10.497      11.935      12.432      12.001      10.897      9.5046    
  8.1076      6.8228      5.7214      4.8351      4.1639      3.6901      3.3907      3.2466      3.2467      3.3900    
  3.6856      4.1516      4.8119      5.6885      6.7910      8.1020      9.5668      11.091      12.486      13.363    
  13.365      12.334      12.700      11.177      9.3023      7.5903      6.5291      6.4144      7.2457      8.7306    
  10.393      11.737      12.403      12.256      11.404      10.132      8.7595      7.4425      6.2671      5.2833    
  4.5072      3.9308      3.5344      3.2973      3.2038      3.2467      3.4279      3.7583      4.2563      4.9444    
  5.8418      6.9535      8.2577      9.6971      11.179      12.527      13.396      13.488      13.565      13.068    
  11.995      10.680      9.5359      8.9202      9.0072      9.7263      10.793      11.815      12.432      12.426    
  11.779      10.660      9.3475      8.0360      6.8197      5.7628      4.8969      4.2259      3.7368      3.4100    
  3.2279      3.1787      3.2583      3.4710      3.8282      4.3481      5.0512      5.9533      7.0554      8.3328    
  9.7278      11.151      12.452      13.337      13.162      13.538      13.338      12.696      11.878      11.197    
  10.893      11.046      11.550      12.159      12.578      12.574      12.051      11.079      9.8559      8.5826    
  7.3592      6.2579      5.3227      4.5702      3.9959      3.5846      3.3187      3.1838      3.1718      3.2814    
  3.5179      3.8931      4.4238      5.1279      6.0181      7.0922      8.3237      9.6566      11.007      12.254    
  11.927      12.848      13.357      13.422      13.146      12.730      12.388      12.266      12.381      12.624    
  12.800      12.713      12.243      11.388      10.272      9.0649      7.8669      6.7516      5.7721      4.9557    
  4.3080      3.8198      3.4759      3.2614      3.1656      3.1834      3.3154      3.5675      3.9508      4.4803    
  5.1714      6.0335      7.0621      8.2302      9.4846      10.749      10.384      11.476      12.386      12.990    
  13.259      13.264      13.138      13.015      12.971      12.990      12.975      12.795      12.341      11.583    
  10.582      9.4670      8.3252      7.2275      6.2314      5.3731      4.6675      4.1131      3.6988      3.4112    
  3.2385      3.1735      3.2133      3.3596      3.6183      3.9994      4.5157      5.1799      5.9989      6.9661    
  8.0554      9.2173      8.8643      9.9239      10.919      11.783      12.433      12.835      13.026      13.084    
  13.081      13.047      12.954      12.732      12.307      11.643      10.771      9.7724      8.7172      7.6693    
  6.6867      5.8117      5.0678      4.4611      3.9865      3.6334      3.3908      3.2503      3.2074      3.2609    
  3.4130      3.6689      4.0372      4.5287      5.1534      5.9158      6.8083      7.8059      7.4918      8.4392    
  9.3868      10.280      11.070      11.713      12.177      12.470      12.626      12.675      12.621      12.438    
  12.086      11.541      10.818      9.9635      9.0258      8.0610      7.1243      6.2611      5.5017      4.8602    
  4.3379      3.9287      3.6236      3.4146      3.2965      3.2667      3.3252      3.4741      3.7177      4.0631    
  4.5190      5.0931      5.7879      6.5951      6.3353      7.1258      7.9591      8.7935      9.5846      10.293    
  10.890      11.357      11.686      11.880      11.945      11.873      11.648      11.258      10.709      10.023    
  9.2338      8.3860      7.5296      6.7100      5.9620      5.3066      4.7524      4.2985      3.9395      3.6691    
  3.4823      3.3763      3.3503      3.4047      3.5412      3.7632      4.0763      4.4872      5.0017      5.6205    
  5.4205      6.0397      6.7230      7.4435      8.1680      8.8609      9.4904      10.032      10.469      10.793    
  10.995      11.068      11.004      10.794      10.436      9.9394      9.3253      8.6274      7.8868      7.1454    
  6.4397      5.7960      5.2295      4.7455      4.3432      4.0191      3.7698      3.5933      3.4889      3.4568    
  3.4976      3.6124      3.8039      4.0763      4.4346      4.8829      4.7413      5.1960      5.7201      6.2995    
  6.9132      7.5351      8.1373      8.6940      9.1839      9.5909      9.9032      10.110      10.202      10.169    
  10.005      9.7079      9.2892      8.7694      8.1786      7.5515      6.9228      6.3212      5.7670      5.2719    
  4.8402      4.4723      4.1675      3.9255      3.7469      3.6328      3.5841      3.6014      3.6855      3.8384    
  4.0631      4.3633      4.2758      4.5824      4.9554      5.3889      5.8720      6.3886      6.9188      7.4410    
  7.9342      8.3800      8.7635      9.0721      9.2943      9.4189      9.4353      9.3367      9.1223      8.8002    
  8.3878      7.9098      7.3945      6.8697      6.3582      5.8766      5.4345      5.0367      4.6859      4.3845    
  4.1353      3.9415      3.8057      3.7294      3.7133      3.7582      3.8655      4.0372      3.9994      4.1752    
  4.4119      4.7078      5.0585      5.4558      5.8881      6.3404      6.7959      7.2377      7.6507      8.0216    
  8.3385      8.5895      8.7626      8.8462      8.8312      8.7143      8.4998      8.1999      7.8333      7.4224    
  6.9889      6.5517      6.1246      5.7167      5.3344      4.9832      4.6689      4.3976      4.1748      4.0045    
  3.8893      3.8302      3.8282      3.8841      3.8936      3.9508      4.0649      4.2357      4.4617      4.7399    
  5.0646      5.4274      5.8172      6.2212      6.6263      7.0207      7.3933      7.7334      8.0292      8.2670    
  8.4331      8.5151      8.5054      8.4032      8.2149      7.9535      7.6357      7.2791      6.8991      6.5081    
  6.1159      5.7309      5.3620      5.0183      4.7092      4.4428      4.2250      4.0597      3.9487      3.8931    
  3.9508      3.8936      3.8931      3.9487      4.0596      4.2250      4.4428      4.7092      5.0182      5.3619    
  5.7309      6.1159      6.5081      6.8991      7.2791      7.6357      7.9535      8.2149      8.4032      8.5054    
  8.5151      8.4331      8.2670      8.0292      7.7334      7.3933      7.0207      6.6263      6.2212      5.8172    
  5.4274      5.0646      4.7399      4.4617      4.2357      4.0649      4.1752      3.9994      3.8841      3.8282    
  3.8302      3.8893      4.0045      4.1748      4.3976      4.6689      4.9832      5.3344      5.7167      6.1246    
  6.5517      6.9889      7.4223      7.8333      8.1999      8.4998      8.7143      8.8312      8.8462      8.7626    
  8.5895      8.3385      8.0216      7.6507      7.2377      6.7959      6.3404      5.8882      5.4558      5.0585    
  4.7078      4.4118      4.5824      4.2758      4.0372      3.8655      3.7582      3.7133      3.7294      3.8057    
  3.9415      4.1353      4.3845      4.6859      5.0367      5.4345      5.8766      6.3582      6.8697      7.3945    
  7.9098      8.3878      8.8002      9.1223      9.3367      9.4353      9.4189      9.2943      9.0721      8.7635    
  8.3800      7.9342      7.4410      6.9188      6.3886      5.8720      5.3889      4.9554      5.1959      4.7413    
  4.3633      4.0631      3.8384      3.6855      3.6014      3.5841      3.6328      3.7469      3.9255      4.1675    
  4.4724      4.8402      5.2719      5.7670      6.3212      6.9228      7.5515      8.1786      8.7694      9.2892    
  9.7079      10.005      10.169      10.202      10.110      9.9032      9.5909      9.1839      8.6940      8.1373    
  7.5351      6.9132      6.2995      5.7201      6.0397      5.4205      4.8828      4.4346      4.0763      3.8039    
  3.6124      3.4976      3.4568      3.4889      3.5933      3.7698      4.0191      4.3432      4.7455      5.2295    
  5.7960      6.4397      7.1454      7.8868      8.6274      9.3253      9.9394      10.436      10.794      11.004    
  11.068      10.995      10.793      10.469      10.032      9.4904      8.8609      8.1680      7.4435      6.7230    
  7.1258      6.3353      5.6205      5.0016      4.4872      4.0763      3.7632      3.5412      3.4047      3.3503    
  3.3763      3.4823      3.6691      3.9395      4.2985      4.7524      5.3066      5.9620      6.7100      7.5296    
  8.3860      9.2338      10.023      10.709      11.258      11.648      11.873      11.945      11.880      11.686    
  11.357      10.890      10.293      9.5846      8.7935      7.9591      8.4392      7.4917      6.5951      5.7878    
  5.0931      4.5190      4.0631      3.7177      3.4741      3.3252      3.2667      3.2964      3.4146      3.6236    
  3.9287      4.3379      4.8602      5.5017      6.2611      7.1243      8.0610      9.0258      9.9635      10.818    
  11.541      12.086      12.438      12.621      12.675      12.626      12.470      12.177      11.713      11.070    
  10.280      9.3867      9.9238      8.8643      7.8059      6.8083      5.9158      5.1534      4.5287      4.0372    
  3.6689      3.4130      3.2609      3.2074      3.2503      3.3908      3.6335      3.9866      4.4611      5.0678    
  5.8118      6.6867      7.6693      8.7172      9.7725      10.771      11.643      12.307      12.732      12.954    
  13.047      13.081      13.084      13.026      12.835      12.433      11.783      10.919      11.476      10.384    
  9.2173      8.0553      6.9661      5.9989      5.1799      4.5157      3.9993      3.6183      3.3596      3.2133    
  3.1735      3.2385      3.4112      3.6989      4.1131      4.6675      5.3731      6.2314      7.2275      8.3251    
  9.4671      10.582      11.583      12.341      12.795      12.975      12.990      12.971      13.015      13.138    
  13.264      13.259      12.990      12.386      12.848      11.927      10.749      9.4846      8.2302      7.0621    
  6.0335      5.1714      4.4803      3.9508      3.5675      3.3154      3.1834      3.1656      3.2614      3.4759    
  3.8198      4.3080      4.9557      5.7721      6.7516      7.8669      9.0649      10.272      11.388      12.243    
  12.713      12.800      12.624      12.381      12.265      12.388      12.730      13.146      13.422      13.357    
  13.538      13.162      12.254      11.007      9.6566      8.3237      7.0922      6.0181      5.1279      4.4238    
  3.8931      3.5179      3.2814      3.1718      3.1838      3.3187      3.5847      3.9959      4.5702      5.3227    
  6.2579      7.3592      8.5826      9.8559      11.079      12.051      12.574      12.578      12.159      11.550    
  11.046      10.893      11.197      11.878      12.695      13.338      13.068      13.565      13.337      12.452    
  11.151      9.7279      8.3328      7.0554      5.9533      5.0512      4.3481      3.8282      3.4709      3.2583    
  3.1787      3.2279      3.4101      3.7368      4.2260      4.8969      5.7628      6.8197      8.0360      9.3475    
  10.660      11.779      12.426      12.432      11.815      10.793      9.7263      9.0072      8.9203      9.5359    
  10.680      11.995      11.177      12.700      13.488      13.396      12.527      11.179      9.6971      8.2577    
  6.9535      5.8418      4.9444      4.2563      3.7583      3.4279      3.2467      3.2038      3.2973      3.5345    
  3.9308      4.5072      5.2833      6.2671      7.4426      8.7595      10.132      11.404      12.256      12.403    
  11.737      10.393      8.7306      7.2458      6.4144      6.5291      7.5903      9.3023      7.9551      10.395    