unknown system                          
   1.00000000000000     
    -2.477237    2.477237    1.413610
     2.477237   -2.477237    1.413610
     2.477237    2.477237   -1.413610
   Si
     2
Direct
  0.000000  0.000000  0.000000
  0.250000  0.750000  0.500000
 
   36   36   36
 -.57473772623E+01 -.46640929192E+01 -.17007721638E+01 0.23863813224E+01 0.66303708408E+01
 0.10150372326E+02 0.12375057107E+02 0.13137534654E+02 0.12645016057E+02 0.11356484962E+02
 0.98019891056E+01 0.82916062400E+01 0.69423642565E+01 0.58188988410E+01 0.49411293380E+01
 0.42983294691E+01 0.38658274341E+01 0.36182958999E+01 0.35378940612E+01 0.36182976732E+01
 0.38658453725E+01 0.42983604907E+01 0.49411528020E+01 0.58189099566E+01 0.69423758810E+01
 0.82916180485E+01 0.98019863154E+01 0.11356469571E+02 0.12645007293E+02 0.13137536494E+02
 0.12375053553E+02 0.10150356076E+02 0.66303482798E+01 0.23863511456E+01 -.17008142582E+01
 -.46641285847E+01 -.46641285847E+01 -.51472337450E+01 -.35343059193E+01 -.25562658758E+00
 0.38591945535E+01 0.78590209564E+01 0.10951063675E+02 0.12686350998E+02 0.13015435405E+02
 0.12228884965E+02 0.10819014304E+02 0.92741860069E+01 0.78151311625E+01 0.65401064825E+01
 0.54991354953E+01 0.47012703078E+01 0.41301635620E+01 0.37600598334E+01 0.35674751712E+01
 0.35379131769E+01 0.36688858914E+01 0.39703355036E+01 0.44627658097E+01 0.51723077618E+01
 0.61212932973E+01 0.73137640781E+01 0.87188968944E+01 0.10259328025E+02 0.11793756229E+02
 0.12936141325E+02 0.13156526258E+02 0.12051137688E+02 0.95059348121E+01 0.57966457260E+01
 0.15859694047E+01 -.22085471411E+01 -.17008142582E+01 -.35343315267E+01 -.34363789620E+01
 -.14434303237E+01 0.19084728004E+01 0.57743888905E+01 0.92761593841E+01 0.11749063968E+02
 0.12883435651E+02 0.12743356869E+02 0.11683909677E+02 0.10203237235E+02 0.86948602526E+01
 0.73076648875E+01 0.61224006816E+01 0.51738176922E+01 0.44610636590E+01 0.39636934124E+01
 0.36562145689E+01 0.35178854224E+01 0.35379589874E+01 0.37177049956E+01 0.40701791972E+01
 0.46177415698E+01 0.53862731917E+01 0.63946724504E+01 0.76398023173E+01 0.90808880227E+01
 0.10630671232E+02 0.12120568937E+02 0.13119690340E+02 0.13127720162E+02 0.11810769590E+02
 0.91474030853E+01 0.55015938796E+01 0.15859694047E+01 0.23863511456E+01 -.25565178660E+00
 -.14434399181E+01 -.86570471546E+00 0.13046135678E+01 0.44758314153E+01 0.78452463482E+01
 0.10653734106E+02 0.12388886824E+02 0.12882343948E+02 0.12296626092E+02 0.11025831297E+02
 0.95340159840E+01 0.80855230463E+01 0.67884649370E+01 0.57046803970E+01 0.48543051218E+01
 0.42283233891E+01 0.38039647517E+01 0.35572727931E+01 0.34709205259E+01 0.35380128546E+01
 0.37632170868E+01 0.41620073336E+01 0.47576788445E+01 0.55748461391E+01 0.66282292621E+01
 0.79077004239E+01 0.93642711226E+01 0.10904128335E+02 0.12335568949E+02 0.13217790401E+02
 0.13099356572E+02 0.11722396267E+02 0.91474030853E+01 0.57966457260E+01 0.66303482798E+01
 0.38591783372E+01 0.19084681269E+01 0.13046200283E+01 0.22018735214E+01 0.43296809218E+01
 0.70939793238E+01 0.97826829573E+01 0.11785351804E+02 0.12749069761E+02 0.12635320052E+02
 0.11681427110E+02 0.10291265569E+02 0.88355285364E+01 0.74689594082E+01 0.62765696600E+01
 0.53014179054E+01 0.45508593039E+01 0.40099625823E+01 0.36554335478E+01 0.34659196194E+01
 0.34278766478E+01 0.35380544739E+01 0.38039267180E+01 0.42425639167E+01 0.48772579118E+01
 0.57304953003E+01 0.68124942883E+01 0.81069373229E+01 0.95588839675E+01 0.11071329832E+02
 0.12441679800E+02 0.13248239178E+02 0.13099356572E+02 0.11810769590E+02 0.95059348121E+01
 0.10150356076E+02 0.78590107485E+01 0.57743868086E+01 0.44758440552E+01 0.43296985129E+01
 0.53603803162E+01 0.72457773224E+01 0.94370090534E+01 0.11345789164E+02 0.12521946552E+02
 0.12763839345E+02 0.12140897522E+02 0.10936273116E+02 0.95238817076E+01 0.81335830984E+01
 0.68675748238E+01 0.57894701020E+01 0.49252449720E+01 0.42721421581E+01 0.38117501162E+01
 0.35218728348E+01 0.33845144910E+01 0.33899387167E+01 0.35380678345E+01 0.38384369327E+01
 0.43088437847E+01 0.49717018683E+01 0.58467572491E+01 0.69398373151E+01 0.82296935652E+01
 0.96579015543E+01 0.11127532223E+02 0.12441679800E+02 0.13217790401E+02 0.13127720162E+02
 0.12051137688E+02 0.12375053553E+02 0.10951064840E+02 0.92761606600E+01 0.78452550975E+01
 0.70940018545E+01 0.72457988685E+01 0.82329289040E+01 0.97263089987E+01 0.11257586317E+02
 0.12378076965E+02 0.12793096419E+02 0.12432129976E+02 0.11443814159E+02 0.10125665633E+02
 0.87544832689E+01 0.74537305144E+01 0.63017363119E+01 0.53420106654E+01 0.45863477080E+01
 0.40249453107E+01 0.36382208358E+01 0.34063548844E+01 0.33150769609E+01 0.33581631469E+01
 0.35380474866E+01 0.38655138218E+01 0.43582478515E+01 0.50370569345E+01 0.59186343798E+01
 0.70048940233E+01 0.82711541625E+01 0.96579015543E+01 0.11071329832E+02 0.12335568949E+02
 0.13119690340E+02 0.13156526258E+02 0.13137536494E+02 0.12686365030E+02 0.11749078971E+02
 0.10653744274E+02 0.97826978054E+01 0.94370332520E+01 0.97263280139E+01 0.10530733461E+02
 0.11550484681E+02 0.12417976339E+02 0.12823877260E+02 0.12611530842E+02 0.11813472405E+02
 0.10625463675E+02 0.93092124810E+01 0.80119325907E+01 0.68192848304E+01 0.57884732325E+01
 0.49457352914E+01 0.42922423694E+01 0.38141829112E+01 0.34927350962E+01 0.33112910777E+01
 0.32592821329E+01 0.33334573645E+01 0.35380035328E+01 0.38841569428E+01 0.43887529590E+01
 0.50704803700E+01 0.59429562365E+01 0.70048940233E+01 0.82296935652E+01 0.95588839675E+01
 0.10904128335E+02 0.12120568937E+02 0.12936141325E+02 0.12645007293E+02 0.13015445202E+02
 0.12883460084E+02 0.12388909948E+02 0.11785367438E+02 0.11345805558E+02 0.11257606016E+02
 0.11550497324E+02 0.12088023487E+02 0.12624042298E+02 0.12897295685E+02 0.12724931912E+02
 0.12062366900E+02 0.11012936376E+02 0.97810441247E+01 0.85219857830E+01 0.73230049160E+01
 0.62497757606E+01 0.53407853514E+01 0.46087689493E+01 0.40479366452E+01 0.36431129434E+01
 0.33776467125E+01 0.32385004854E+01 0.32184571921E+01 0.33165517238E+01 0.35379599259E+01
 0.38936607664E+01 0.43990689234E+01 0.50704803700E+01 0.59186343798E+01 0.69398373151E+01
 0.81069373229E+01 0.93642711226E+01 0.10630671232E+02 0.11793756229E+02 0.11356469571E+02
 0.12228878211E+02 0.12743369488E+02 0.12882370601E+02 0.12749094760E+02 0.12521964031E+02
 0.12378091696E+02 0.12417988843E+02 0.12624047854E+02 0.12870020119E+02 0.12975166848E+02
 0.12778205342E+02 0.12201220588E+02 0.11281084826E+02 0.10156841344E+02 0.89669529359E+01
 0.77951831794E+01 0.67104434462E+01 0.57601315678E+01 0.49676219784E+01 0.43361894703E+01
 0.38563815681E+01 0.35137026850E+01 0.32945142727E+01 0.31892817566E+01 0.31935695280E+01
 0.33079639219E+01 0.35379422141E+01 0.38936607664E+01 0.43887529590E+01 0.50370569345E+01
 0.58467572491E+01 0.68124942883E+01 0.79077004239E+01 0.90808880227E+01 0.10259328025E+02
 0.98019863154E+01 0.10819006010E+02 0.11683905698E+02 0.12296637179E+02 0.12635342318E+02
 0.12763861130E+02 0.12793112760E+02 0.12823888863E+02 0.12897301360E+02 0.12975166795E+02
 0.12958087255E+02 0.12731564743E+02 0.12219276830E+02 0.11421674530E+02 0.10424034342E+02
 0.93319566632E+01 0.82199276052E+01 0.71556591450E+01 0.61918465594E+01 0.53606603794E+01
 0.46744291706E+01 0.41307196408E+01 0.37190612373E+01 0.34270240345E+01 0.32442962978E+01
 0.31644693574E+01 0.31852074487E+01 0.33079639219E+01 0.35379599259E+01 0.38841569428E+01
 0.43582478515E+01 0.49717018683E+01 0.57304953003E+01 0.66282292621E+01 0.76398023173E+01
 0.87188968944E+01 0.82916180485E+01 0.92741944329E+01 0.10203237063E+02 0.11025830411E+02
 0.11681434558E+02 0.12140912226E+02 0.12432145779E+02 0.12611544186E+02 0.12724940186E+02
 0.12778206115E+02 0.12731561314E+02 0.12519484941E+02 0.12086101373E+02 0.11419618301E+02
 0.10568757083E+02 0.96025311546E+01 0.85824617025E+01 0.75715659963E+01 0.66243635057E+01
 0.57795209743E+01 0.50576855132E+01 0.44640342823E+01 0.39935200398E+01 0.36365696893E+01
 0.33835882095E+01 0.32275041968E+01 0.31644693574E+01 0.31935695280E+01 0.33165517238E+01
 0.35380035328E+01 0.38655138218E+01 0.43088437847E+01 0.48772579118E+01 0.55748461391E+01
 0.63946724504E+01 0.73137640781E+01 0.69423758810E+01 0.78151488215E+01 0.86948748256E+01
 0.95340223000E+01 0.10291267984E+02 0.10936277451E+02 0.11443821445E+02 0.11813481614E+02
 0.12062376342E+02 0.12201225881E+02 0.12219274819E+02 0.12086096583E+02 0.11769098118E+02
 0.11257668704E+02 0.10576614131E+02 0.97639306490E+01 0.88680869199E+01 0.79445634928E+01
 0.70463685950E+01 0.62160086363E+01 0.54811386294E+01 0.48545629612E+01 0.43375971225E+01
 0.39249120532E+01 0.36090660061E+01 0.33835882095E+01 0.32442962978E+01 0.31892817566E+01
 0.32184571921E+01 0.33334573645E+01 0.35380474866E+01 0.38384369327E+01 0.42425639167E+01
 0.47576788445E+01 0.53862731917E+01 0.61212932973E+01 0.58189099566E+01 0.65401183806E+01
 0.73076806469E+01 0.80855378364E+01 0.88355385633E+01 0.95238874470E+01 0.10125668580E+02
 0.10625465411E+02 0.11012939769E+02 0.11281090289E+02 0.11421677403E+02 0.11419615173E+02
 0.11257663994E+02 0.10928069416E+02 0.10436172984E+02 0.98023348980E+01 0.90619039490E+01
 0.82603175269E+01 0.74457183128E+01 0.66613241554E+01 0.59397767541E+01 0.53008744217E+01
 0.47527617932E+01 0.42954380380E+01 0.39249120532E+01 0.36365696893E+01 0.34270240345E+01
 0.32945142727E+01 0.32385004854E+01 0.32592821329E+01 0.33581631469E+01 0.35380678345E+01
 0.38039267180E+01 0.41620073336E+01 0.46177415698E+01 0.51723077618E+01 0.49411528020E+01
 0.54991470918E+01 0.61224085782E+01 0.67884741598E+01 0.74689702196E+01 0.81335939003E+01
 0.87544914923E+01 0.93092152462E+01 0.97810425075E+01 0.10156840524E+02 0.10424036522E+02
 0.10568758187E+02 0.10576611047E+02 0.10436169273E+02 0.10143824598E+02 0.97078776952E+01
 0.91500330090E+01 0.85035058558E+01 0.78082021744E+01 0.71044008698E+01 0.64268042636E+01
 0.58006276550E+01 0.52406147470E+01 0.47527617932E+01 0.43375971225E+01 0.39935200398E+01
 0.37190612373E+01 0.35137026850E+01 0.33776467125E+01 0.33112910777E+01 0.33150769609E+01
 0.33899387167E+01 0.35380544739E+01 0.37632170868E+01 0.40701791972E+01 0.44627658097E+01
 0.42983604907E+01 0.47012916167E+01 0.51738278987E+01 0.57046837726E+01 0.62765716936E+01
 0.68675799961E+01 0.74537399322E+01 0.80119418729E+01 0.85219888475E+01 0.89669498982E+01
 0.93319534854E+01 0.96025309980E+01 0.97639305943E+01 0.98023326952E+01 0.97078756647E+01
 0.94783912187E+01 0.91222505016E+01 0.86589885547E+01 0.81172203532E+01 0.75303547999E+01
 0.69313572786E+01 0.63481028282E+01 0.58006276550E+01 0.53008744217E+01 0.48545629612E+01
 0.44640342823E+01 0.41307196408E+01 0.38563815681E+01 0.36431129434E+01 0.34927350962E+01
 0.34063548844E+01 0.33845144910E+01 0.34278766478E+01 0.35380128546E+01 0.37177049956E+01
 0.39703355036E+01 0.38658453725E+01 0.41301833098E+01 0.44610796421E+01 0.48543134961E+01
 0.53014184390E+01 0.57894671980E+01 0.63017371225E+01 0.68192924935E+01 0.73230142507E+01
 0.77951865594E+01 0.82199243776E+01 0.85824574763E+01 0.88680851672E+01 0.90619034015E+01
 0.91500325136E+01 0.91222506927E+01 0.89751225427E+01 0.87143163845E+01 0.83550333551E+01
 0.79201761999E+01 0.74367174565E+01 0.69313572786E+01 0.64268042636E+01 0.59397767541E+01
 0.54811386294E+01 0.50576855132E+01 0.46744291706E+01 0.43361894703E+01 0.40479366452E+01
 0.38141829112E+01 0.36382208358E+01 0.35218728348E+01 0.34659196194E+01 0.34709205259E+01
 0.35379589874E+01 0.36688858914E+01 0.36182976732E+01 0.37600628970E+01 0.39636999660E+01
 0.42283320197E+01 0.45508656940E+01 0.49252453699E+01 0.53420075056E+01 0.57884737203E+01
 0.62497830652E+01 0.67104522166E+01 0.71556622342E+01 0.75715628508E+01 0.79445588943E+01
 0.82603149955E+01 0.85035058281E+01 0.86589905442E+01 0.87143188965E+01 0.86627270098E+01
 0.85054323893E+01 0.82522494745E+01 0.79201761999E+01 0.75303547999E+01 0.71044008698E+01
 0.66613241554E+01 0.62160086363E+01 0.57795209743E+01 0.53606603794E+01 0.49676219784E+01
 0.46087689493E+01 0.42922423694E+01 0.40249453107E+01 0.38117501162E+01 0.36554335478E+01
 0.35572727931E+01 0.35178854224E+01 0.35379131769E+01 0.35378940612E+01 0.35674681885E+01
 0.36562045635E+01 0.38039581323E+01 0.40099632672E+01 0.42721471531E+01 0.45863515052E+01
 0.49457373650E+01 0.53407899340E+01 0.57601397605E+01 0.61918538645E+01 0.66243654131E+01
 0.70463656138E+01 0.74457141303E+01 0.78082000339E+01 0.81172218108E+01 0.83550378089E+01
 0.85054364627E+01 0.85569503709E+01 0.85054323893E+01 0.83550333551E+01 0.81172203532E+01
 0.78082021744E+01 0.74457183128E+01 0.70463685950E+01 0.66243635057E+01 0.61918465594E+01
 0.57601315678E+01 0.53407853514E+01 0.49457352914E+01 0.45863477080E+01 0.42721421581E+01
 0.40099625823E+01 0.38039647517E+01 0.36562145689E+01 0.35674751712E+01 0.36182958999E+01
 0.35379075080E+01 0.35178713513E+01 0.35572528259E+01 0.36554173934E+01 0.38117455327E+01
 0.40249513762E+01 0.42922526501E+01 0.46087795374E+01 0.49676323295E+01 0.53606691988E+01
 0.57795260305E+01 0.62160093659E+01 0.66613220596E+01 0.71043980814E+01 0.75303538408E+01
 0.79201790341E+01 0.82522549837E+01 0.85054364627E+01 0.86627270098E+01 0.87143163845E+01
 0.86589885547E+01 0.85035058558E+01 0.82603175269E+01 0.79445634928E+01 0.75715659963E+01
 0.71556591450E+01 0.67104434462E+01 0.62497757606E+01 0.57884732325E+01 0.53420106654E+01
 0.49252449720E+01 0.45508593039E+01 0.42283233891E+01 0.39636934124E+01 0.37600598334E+01
 0.38658274341E+01 0.36688724386E+01 0.35379455295E+01 0.34709007277E+01 0.34658950088E+01
 0.35218536268E+01 0.36382159253E+01 0.38141922433E+01 0.40479538243E+01 0.43362078765E+01
 0.46744440476E+01 0.50576941538E+01 0.54811418786E+01 0.59397773623E+01 0.64268037050E+01
 0.69313558867E+01 0.74367171638E+01 0.79201790341E+01 0.83550378089E+01 0.87143188965E+01
 0.89751225427E+01 0.91222505016E+01 0.91500330090E+01 0.90619039490E+01 0.88680869199E+01
 0.85824617025E+01 0.82199276052E+01 0.77951831794E+01 0.73230049160E+01 0.68192848304E+01
 0.63017363119E+01 0.57894701020E+01 0.53014179054E+01 0.48543051218E+01 0.44610636590E+01
 0.41301635620E+01 0.42983294691E+01 0.39703034513E+01 0.37176790813E+01 0.35379912074E+01
 0.34278536814E+01 0.33844911131E+01 0.34063389957E+01 0.34927332170E+01 0.36431253077E+01
 0.38564031418E+01 0.41307429419E+01 0.44640517898E+01 0.48545714460E+01 0.53008770970E+01
 0.58006288328E+01 0.63481030743E+01 0.69313558867E+01 0.75303538408E+01 0.81172218108E+01
 0.86589905442E+01 0.91222506927E+01 0.94783912187E+01 0.97078776952E+01 0.98023348980E+01
 0.97639306490E+01 0.96025311546E+01 0.93319566632E+01 0.89669529359E+01 0.85219857830E+01
 0.80119325907E+01 0.74537305144E+01 0.68675748238E+01 0.62765696600E+01 0.57046803970E+01
 0.51738176922E+01 0.47012703078E+01 0.49411293380E+01 0.44627294506E+01 0.40701391272E+01
 0.37631828007E+01 0.35380274951E+01 0.33899160236E+01 0.33150589450E+01 0.33112815181E+01
 0.33776484648E+01 0.35137163935E+01 0.37190844729E+01 0.39935457718E+01 0.43376161340E+01
 0.47527704474E+01 0.52406174511E+01 0.58006288328E+01 0.64268037050E+01 0.71043980814E+01
 0.78082000339E+01 0.85035058281E+01 0.91500325136E+01 0.97078756647E+01 0.10143824598E+02
 0.10436172984E+02 0.10576614131E+02 0.10568757083E+02 0.10424034342E+02 0.10156841344E+02
 0.97810441247E+01 0.93092124810E+01 0.87544832689E+01 0.81335830984E+01 0.74689594082E+01
 0.67884649370E+01 0.61224006816E+01 0.54991354953E+01 0.58188988410E+01 0.51722877727E+01
 0.46177090763E+01 0.41619692175E+01 0.38038921107E+01 0.35380400746E+01 0.33581424961E+01
 0.32592697095E+01 0.32384967739E+01 0.32945188430E+01 0.34270381237E+01 0.36365933476E+01
 0.39249388709E+01 0.42954576124E+01 0.47527704474E+01 0.53008770970E+01 0.59397773623E+01
 0.66613220596E+01 0.74457141303E+01 0.82603149955E+01 0.90619034015E+01 0.98023326952E+01
 0.10436169273E+02 0.10928069416E+02 0.11257668704E+02 0.11419618301E+02 0.11421674530E+02
 0.11281084826E+02 0.11012936376E+02 0.10625463675E+02 0.10125665633E+02 0.95238817076E+01
 0.88355285364E+01 0.80855230463E+01 0.73076648875E+01 0.65401064825E+01 0.69423642565E+01
 0.61212873578E+01 0.53862633811E+01 0.47576592394E+01 0.42425376991E+01 0.38384093474E+01
 0.35380219899E+01 0.33334383400E+01 0.32184484109E+01 0.31892819899E+01 0.32443027691E+01
 0.33836025223E+01 0.36090897681E+01 0.39249388709E+01 0.43376161340E+01 0.48545714460E+01
 0.54811418786E+01 0.62160093659E+01 0.70463656138E+01 0.79445588943E+01 0.88680851672E+01
 0.97639305943E+01 0.10576611047E+02 0.11257663994E+02 0.11769098118E+02 0.12086101373E+02
 0.12219276830E+02 0.12201220588E+02 0.12062366900E+02 0.11813472405E+02 0.11443814159E+02
 0.10936273116E+02 0.10291265569E+02 0.95340159840E+01 0.86948602526E+01 0.78151311625E+01
 0.82916062400E+01 0.73137597420E+01 0.63946766667E+01 0.55748502655E+01 0.48772559428E+01
 0.43088346135E+01 0.38654967749E+01 0.35379814269E+01 0.33165336043E+01 0.31935626355E+01
 0.31644715893E+01 0.32275114027E+01 0.33836025223E+01 0.36365933476E+01 0.39935457718E+01
 0.44640517898E+01 0.50576941538E+01 0.57795260305E+01 0.66243654131E+01 0.75715628508E+01
 0.85824574763E+01 0.96025309980E+01 0.10568758187E+02 0.11419615173E+02 0.12086096583E+02
 0.12519484941E+02 0.12731564743E+02 0.12778205342E+02 0.12724931912E+02 0.12611530842E+02
 0.12432129976E+02 0.12140897522E+02 0.11681427110E+02 0.11025831297E+02 0.10203237235E+02
 0.92741860069E+01 0.98019891056E+01 0.87188982911E+01 0.76398113774E+01 0.66282457920E+01
 0.57305130443E+01 0.49717170688E+01 0.43582553934E+01 0.38841501193E+01 0.35379409306E+01
 0.33079463394E+01 0.31852011686E+01 0.31644715893E+01 0.32443027691E+01 0.34270381237E+01
 0.37190844729E+01 0.41307429419E+01 0.46744440476E+01 0.53606691988E+01 0.61918538645E+01
 0.71556622342E+01 0.82199243776E+01 0.93319534854E+01 0.10424036522E+02 0.11421677403E+02
 0.12219274819E+02 0.12731561314E+02 0.12958087255E+02 0.12975166848E+02 0.12897295685E+02
 0.12823877260E+02 0.12793096419E+02 0.12763839345E+02 0.12635320052E+02 0.12296626092E+02
 0.11683909677E+02 0.10819014304E+02 0.11356484962E+02 0.10259343306E+02 0.90809062268E+01
 0.79077253190E+01 0.68125223276E+01 0.58467857619E+01 0.50370852862E+01 0.43887727013E+01
 0.38936603672E+01 0.35379245342E+01 0.33079463394E+01 0.31935626355E+01 0.31892819899E+01
 0.32945188430E+01 0.35137163935E+01 0.38564031418E+01 0.43362078765E+01 0.49676323295E+01
 0.57601397605E+01 0.67104522166E+01 0.77951865594E+01 0.89669498982E+01 0.10156840524E+02
 0.11281090289E+02 0.12201225881E+02 0.12778206115E+02 0.12975166795E+02 0.12870020119E+02
 0.12624042298E+02 0.12417976339E+02 0.12378076965E+02 0.12521946552E+02 0.12749069761E+02
 0.12882343948E+02 0.12743356869E+02 0.12228884965E+02 0.12645016057E+02 0.11793775085E+02
 0.10630696688E+02 0.93643057268E+01 0.81069770532E+01 0.69398745064E+01 0.59186698914E+01
 0.50705158912E+01 0.43990931852E+01 0.38936603672E+01 0.35379409306E+01 0.33165336043E+01
 0.32184484109E+01 0.32384967739E+01 0.33776484648E+01 0.36431253077E+01 0.40479538243E+01
 0.46087795374E+01 0.53407899340E+01 0.62497830652E+01 0.73230142507E+01 0.85219888475E+01
 0.97810425075E+01 0.11012939769E+02 0.12062376342E+02 0.12724940186E+02 0.12897301360E+02
 0.12624047854E+02 0.12088023487E+02 0.11550484681E+02 0.11257586317E+02 0.11345789164E+02
 0.11785351804E+02 0.12388886824E+02 0.12883435651E+02 0.13015435405E+02 0.13137534654E+02
 0.12936151437E+02 0.12120587564E+02 0.10904160643E+02 0.95589317460E+01 0.82297441906E+01
 0.70049365365E+01 0.59429942367E+01 0.50705158912E+01 0.43887727013E+01 0.38841501193E+01
 0.35379814269E+01 0.33334383400E+01 0.32592697095E+01 0.33112815181E+01 0.34927332170E+01
 0.38141922433E+01 0.42922526501E+01 0.49457373650E+01 0.57884737203E+01 0.68192924935E+01
 0.80119418729E+01 0.93092152462E+01 0.10625465411E+02 0.11813481614E+02 0.12611544186E+02
 0.12823888863E+02 0.12417988843E+02 0.11550497324E+02 0.10530733461E+02 0.97263089987E+01
 0.94370090534E+01 0.97826829573E+01 0.10653734106E+02 0.11749063968E+02 0.12686350998E+02
 0.12375057107E+02 0.13156536660E+02 0.13119702085E+02 0.12335585969E+02 0.11071366252E+02
 0.96579569090E+01 0.82712088771E+01 0.70049365365E+01 0.59186698914E+01 0.50370852862E+01
 0.43582553934E+01 0.38654967749E+01 0.35380219899E+01 0.33581424961E+01 0.33150589450E+01
 0.34063389957E+01 0.36382159253E+01 0.40249513762E+01 0.45863515052E+01 0.53420075056E+01
 0.63017371225E+01 0.74537399322E+01 0.87544914923E+01 0.10125668580E+02 0.11443821445E+02
 0.12432145779E+02 0.12793112760E+02 0.12378091696E+02 0.11257606016E+02 0.97263280139E+01
 0.82329289040E+01 0.72457773224E+01 0.70939793238E+01 0.78452463482E+01 0.92761593841E+01
 0.10951063675E+02 0.10150372326E+02 0.12051162169E+02 0.13127743871E+02 0.13217804173E+02
 0.12441695761E+02 0.11127570089E+02 0.96579569090E+01 0.82297441906E+01 0.69398745064E+01
 0.58467857619E+01 0.49717170688E+01 0.43088346135E+01 0.38384093474E+01 0.35380400746E+01
 0.33899160236E+01 0.33844911131E+01 0.35218536268E+01 0.38117455327E+01 0.42721471531E+01
 0.49252453699E+01 0.57894671980E+01 0.68675799961E+01 0.81335939003E+01 0.95238874470E+01
 0.10936277451E+02 0.12140912226E+02 0.12763861130E+02 0.12521964031E+02 0.11345805558E+02
 0.94370332520E+01 0.72457988685E+01 0.53603803162E+01 0.43296809218E+01 0.44758314153E+01
 0.57743888905E+01 0.78590209564E+01 0.66303708408E+01 0.95059679790E+01 0.11810811635E+02
 0.13099389257E+02 0.13248253961E+02 0.12441695761E+02 0.11071366252E+02 0.95589317460E+01
 0.81069770532E+01 0.68125223276E+01 0.57305130443E+01 0.48772559428E+01 0.42425376991E+01
 0.38038921107E+01 0.35380274951E+01 0.34278536814E+01 0.34658950088E+01 0.36554173934E+01
 0.40099632672E+01 0.45508656940E+01 0.53014184390E+01 0.62765716936E+01 0.74689702196E+01
 0.88355385633E+01 0.10291267984E+02 0.11681434558E+02 0.12635342318E+02 0.12749094760E+02
 0.11785367438E+02 0.97826978054E+01 0.70940018545E+01 0.43296985129E+01 0.22018735214E+01
 0.13046135678E+01 0.19084728004E+01 0.38591945535E+01 0.23863813224E+01 0.57966783242E+01
 0.91474469646E+01 0.11722445243E+02 0.13099389257E+02 0.13217804173E+02 0.12335585969E+02
 0.10904160643E+02 0.93643057268E+01 0.79077253190E+01 0.66282457920E+01 0.55748502655E+01
 0.47576592394E+01 0.41619692175E+01 0.37631828007E+01 0.35379912074E+01 0.34709007277E+01
 0.35572528259E+01 0.38039581323E+01 0.42283320197E+01 0.48543134961E+01 0.57046837726E+01
 0.67884741598E+01 0.80855378364E+01 0.95340223000E+01 0.11025830411E+02 0.12296637179E+02
 0.12882370601E+02 0.12388909948E+02 0.10653744274E+02 0.78452550975E+01 0.44758440552E+01
 0.13046200283E+01 -.86570471546E+00 -.14434303237E+01 -.25562658758E+00 -.17007721638E+01
 0.15860084601E+01 0.55016304251E+01 0.91474469646E+01 0.11810811635E+02 0.13127743871E+02
 0.13119702085E+02 0.12120587564E+02 0.10630696688E+02 0.90809062268E+01 0.76398113774E+01
 0.63946766667E+01 0.53862633811E+01 0.46177090763E+01 0.40701391272E+01 0.37176790813E+01
 0.35379455295E+01 0.35178713513E+01 0.36562045635E+01 0.39636999660E+01 0.44610796421E+01
 0.51738278987E+01 0.61224085782E+01 0.73076806469E+01 0.86948748256E+01 0.10203237063E+02
 0.11683905698E+02 0.12743369488E+02 0.12883460084E+02 0.11749078971E+02 0.92761606600E+01
 0.57743868086E+01 0.19084681269E+01 -.14434399181E+01 -.34363789620E+01 -.35343059193E+01
 -.46640929192E+01 -.22084984788E+01 0.15860084601E+01 0.57966783242E+01 0.95059679790E+01
 0.12051162169E+02 0.13156536660E+02 0.12936151437E+02 0.11793775085E+02 0.10259343306E+02
 0.87188982911E+01 0.73137597420E+01 0.61212873578E+01 0.51722877727E+01 0.44627294506E+01
 0.39703034513E+01 0.36688724386E+01 0.35379075080E+01 0.35674681885E+01 0.37600628970E+01
 0.41301833098E+01 0.47012916167E+01 0.54991470918E+01 0.65401183806E+01 0.78151488215E+01
 0.92741944329E+01 0.10819006010E+02 0.12228878211E+02 0.13015445202E+02 0.12686365030E+02
 0.10951064840E+02 0.78590107485E+01 0.38591783372E+01 -.25565178660E+00 -.35343315267E+01
 -.51472337450E+01 -.46640930441E+01 -.39011998988E+01 -.13073101751E+01 0.24528254389E+01
 0.64752727749E+01 0.98976671323E+01 0.12126497198E+02 0.12949541583E+02 0.12526052709E+02
 0.11280251145E+02 0.97321814427E+01 0.82133617050E+01 0.68471787420E+01 0.57024052767E+01
 0.48021813554E+01 0.41372655171E+01 0.36829583745E+01 0.34129652126E+01 0.33079219452E+01
 0.33596133524E+01 0.35723621098E+01 0.39622951684E+01 0.45540730223E+01 0.53737910849E+01
 0.64366484313E+01 0.77303891122E+01 0.92000113525E+01 0.10741511278E+02 0.12105807356E+02
 0.12794159952E+02 0.12339042342E+02 0.10496079284E+02 0.73704146682E+01 0.34566614853E+01
 -.43875576898E+00 -.33972863804E+01 -.39012284701E+01 -.46641103334E+01 -.33972892580E+01
 -.43875132129E+00 0.34566674205E+01 0.73704243974E+01 0.10496097847E+02 0.12339072056E+02
 0.12794198588E+02 0.12105848767E+02 0.10741548442E+02 0.92000387286E+01 0.77304057241E+01
 0.64366566523E+01 0.53737949045E+01 0.45540759156E+01 0.39622986272E+01 0.35723641974E+01
 0.33596114481E+01 0.33079161794E+01 0.34129581816E+01 0.36829516276E+01 0.41372577746E+01
 0.48021704854E+01 0.57023898670E+01 0.68471562359E+01 0.82133297831E+01 0.97321415545E+01
 0.11280207823E+02 0.12526009236E+02 0.12949499581E+02 0.12126461088E+02 0.98976416742E+01
 0.64752561255E+01 0.24528068037E+01 -.13073374428E+01 -.12169888957E+01 -.33006933978E+01
 -.35343318728E+01 -.18661259824E+01 0.12522673559E+01 0.50249836286E+01 0.85737980370E+01
 0.11192638002E+02 0.12510616078E+02 0.12533713302E+02 0.11578492831E+02 0.10132020720E+02
 0.86229471033E+01 0.72219214917E+01 0.60161384265E+01 0.50455192449E+01 0.43120314890E+01
 0.37959300558E+01 0.34710758105E+01 0.33153941394E+01 0.33165081071E+01 0.34740550976E+01
 0.37997855033E+01 0.43155608027E+01 0.50482347610E+01 0.60198424714E+01 0.72327618092E+01
 0.86533705766E+01 0.10201591065E+02 0.11730541306E+02 0.12847825255E+02 0.13047718332E+02
 0.11966607920E+02 0.95335810396E+01 0.60523041314E+01 0.21795382866E+01 0.26857043316E+01
 -.17954943103E+00 -.16856329237E+01 -.14434577958E+01 0.46297273651E+00 0.35078598080E+01
 0.69076842899E+01 0.98738745202E+01 0.11833164044E+02 0.12549635844E+02 0.12132695064E+02
 0.10949960806E+02 0.94752747163E+01 0.80205547209E+01 0.67059738302E+01 0.56002709829E+01
 0.47283469881E+01 0.40833680602E+01 0.36427730782E+01 0.33816900498E+01 0.32813779604E+01
 0.33334295449E+01 0.35412048595E+01 0.39193918756E+01 0.44914606717E+01 0.52837150802E+01
 0.63144904562E+01 0.75790382776E+01 0.90345740063E+01 0.10592896755E+02 0.12083923772E+02
 0.13086934924E+02 0.13134413853E+02 0.11932676170E+02 0.94925831599E+01 0.61841586837E+01
 0.68551400127E+01 0.38935782717E+01 0.16478558400E+01 0.70513254965E+00 0.13045861205E+01
 0.32537086985E+01 0.59994009921E+01 0.88201583689E+01 0.11054275093E+02 0.12278400310E+02
 0.12388840777E+02 0.11580491283E+02 0.10245238593E+02 0.87928674506E+01 0.74136149054E+01
 0.62003425104E+01 0.52026580765E+01 0.44318378546E+01 0.38743676581E+01 0.35066859354E+01
 0.33063153301E+01 0.32583156226E+01 0.33581605871E+01 0.36124367780E+01 0.40379907828E+01
 0.46589237593E+01 0.54999467945E+01 0.65750222983E+01 0.78726705349E+01 0.93429396826E+01
 0.10892936711E+02 0.12336752512E+02 0.13257059301E+02 0.13238818060E+02 0.12059314942E+02
 0.97962851537E+01 0.10394659881E+02 0.79550616424E+01 0.56152460422E+01 0.39945814403E+01
 0.35310393458E+01 0.43296511800E+01 0.61272573308E+01 0.83898385567E+01 0.10496943958E+02
 0.11934972005E+02 0.12431773632E+02 0.12000862186E+02 0.10897170021E+02 0.95045753479E+01
 0.81075613602E+01 0.68227531542E+01 0.57214266796E+01 0.48351289499E+01 0.41639462668E+01
 0.36901083097E+01 0.33907387133E+01 0.32465964468E+01 0.32466794355E+01 0.33899643981E+01
 0.36855697011E+01 0.41516175257E+01 0.48118553283E+01 0.56885367559E+01 0.67910120907E+01
 0.81020213600E+01 0.95667809296E+01 0.11090933142E+02 0.12486170878E+02 0.13362744540E+02
 0.13364693885E+02 0.12333986368E+02 0.12699621845E+02 0.11176995558E+02 0.93022654615E+01
 0.75903235655E+01 0.65291333775E+01 0.64143953436E+01 0.72457447458E+01 0.87305553727E+01
 0.10392746478E+02 0.11737100324E+02 0.12402818087E+02 0.12256419991E+02 0.11404373543E+02
 0.10131934804E+02 0.87595145840E+01 0.74425447210E+01 0.62670504702E+01 0.52832642200E+01
 0.45072120277E+01 0.39308133897E+01 0.35344317979E+01 0.32972557682E+01 0.32037619956E+01
 0.32466923458E+01 0.34279227043E+01 0.37582892474E+01 0.42562790922E+01 0.49443832213E+01
 0.58418068854E+01 0.69534722896E+01 0.82576502395E+01 0.96970756046E+01 0.11178833538E+02
 0.12527207221E+02 0.13395942612E+02 0.13488417938E+02 0.13564624421E+02 0.13067656612E+02
 0.11995466737E+02 0.10680103263E+02 0.95358850984E+01 0.89202446664E+01 0.90072290727E+01
 0.97262785239E+01 0.10792784096E+02 0.11815288020E+02 0.12432240097E+02 0.12425954333E+02
 0.11778668529E+02 0.10659848939E+02 0.93475272349E+01 0.80359928163E+01 0.68196686483E+01
 0.57627940400E+01 0.48968890996E+01 0.42259227056E+01 0.37367829620E+01 0.34100381124E+01
 0.32279046081E+01 0.31786695418E+01 0.32583492584E+01 0.34709710977E+01 0.38282403917E+01
 0.43481465775E+01 0.50511980636E+01 0.59532763869E+01 0.70553929443E+01 0.83327886072E+01
 0.97278495656E+01 0.11151490818E+02 0.12452326681E+02 0.13337351164E+02 0.13162110212E+02
 0.13537840043E+02 0.13338077418E+02 0.12695541313E+02 0.11878291932E+02 0.11197123923E+02
 0.10892521918E+02 0.11045581954E+02 0.11550463524E+02 0.12159296013E+02 0.12578229983E+02
 0.12573939248E+02 0.12051318896E+02 0.11078757474E+02 0.98558660822E+01 0.85825806579E+01
 0.73592258256E+01 0.62578558101E+01 0.53226972028E+01 0.45701500386E+01 0.39958935954E+01
 0.35846190717E+01 0.33186735637E+01 0.31837996061E+01 0.31718373387E+01 0.32814205593E+01
 0.35179270112E+01 0.38931252459E+01 0.44237725785E+01 0.51279128170E+01 0.60181205587E+01
 0.70922039730E+01 0.83237462841E+01 0.96565859272E+01 0.11007251127E+02 0.12253598326E+02
 0.11926826237E+02 0.12848264238E+02 0.13357110697E+02 0.13421659730E+02 0.13146279795E+02
 0.12730064914E+02 0.12388019346E+02 0.12265505355E+02 0.12381418516E+02 0.12624033541E+02