    2    2   15    1
  0.1734981E+02  0.3777790E-09  0.3777790E-09  0.3777790E-09  0.5000000E-15
  1.000000000000000E-004
  CAR 
 unknown system                          
      8     56      8
 
  0.6250000E-01  0.6250000E-01  0.6250000E-01  0.1562500E-01
    1       -4.607693   1.000000
    2        3.659351   1.000000
    3        5.896069   1.000000
    4        7.298410   0.970344
    5       11.036909   0.000000
    6       11.916705   0.000000
    7       12.421159   0.000000
    8       14.546934   0.000000
 
  0.1875000E+00  0.6250000E-01  0.6250000E-01  0.3125000E-01
    1       -3.511069   1.000000
    2        3.340779   1.000000
    3        6.066423   1.000000
    4        7.966438   0.002271
    5        9.276522   0.000000
    6        9.582011   0.000000
    7       12.339130   0.000000
    8       13.050622   0.000000
 
  0.3125000E+00  0.6250000E-01  0.6250000E-01  0.3125000E-01
    1       -1.723980   1.000000
    2        3.297839   1.000000
    3        4.648759   1.000000
    4        6.264458   1.000000
    5        7.394646   0.885972
    6       10.584517   0.000000
    7       11.542882   0.000000
    8       12.380075   0.000000
 
  0.4375000E+00  0.6250000E-01  0.6250000E-01  0.1562500E-01
    1        0.189855   1.000000
    2        1.459594   1.000000
    3        4.632348   1.000000
    4        5.376058   1.000000
    5        7.250000   0.987066
    6        9.658470   0.000000
    7       11.632815   0.000000
    8       12.704462   0.000000
 
 -0.6250000E-01  0.6250000E-01  0.6250000E-01  0.7812500E-02
    1       -4.975996   1.000000
    2        4.232412   1.000000
    3        5.181708   1.000000
    4        6.972484   0.999986
    5       10.295671   0.000000
    6       13.406498   0.000000
    7       15.011174   0.000000
    8       15.477820   0.000000
 
  0.1875000E+00  0.1875000E+00  0.6250000E-01  0.1562500E-01
    1       -1.896517   1.000000
    2        3.404608   1.000000
    3        5.265406   1.000000
    4        5.630840   1.000000
    5        8.495999   0.000000
    6       10.110965   0.000000
    7       11.639854   0.000000
    8       11.865765   0.000000
 
  0.3125000E+00  0.1875000E+00  0.6250000E-01  0.3125000E-01
    1        0.201991   1.000000
    2        2.027287   1.000000
    3        3.366226   1.000000
    4        4.943994   1.000000
    5        8.603230   0.000000
    6       10.329005   0.000000
    7       11.422367   0.000000
    8       13.302761   0.000000
 
  0.4375000E+00  0.1875000E+00  0.6250000E-01  0.3125000E-01
    1       -0.859515   1.000000
    2        1.779326   1.000000
    3        3.907785   1.000000
    4        6.163527   1.000000
    5        8.009609   0.000836
    6       10.606481   0.000000
    7       12.388869   0.000000
    8       12.968957   0.000000
 
 -0.4375000E+00  0.1875000E+00  0.6250000E-01  0.3125000E-01
    1       -2.795415   1.000000
    2        1.382592   1.000000
    3        6.460698   1.000000
    4        7.576699   0.467354
    5        8.944526   0.000000
    6       10.345334   0.000000
    7       11.545941   0.000000
    8       13.605563   0.000000
 
 -0.3125000E+00  0.1875000E+00  0.6250000E-01  0.1562500E-01
    1       -4.065307   1.000000
    2        1.545331   1.000000
    3        6.371340   1.000000
    4        8.250244   0.000001
    5       10.660963   0.000000
    6       11.931968   0.000000
    7       13.064596   0.000000
    8       13.456950   0.000000
 
 -0.1875000E+00  0.1875000E+00  0.6250000E-01  0.1562500E-01
    1       -4.613335   1.000000
    2        2.337034   1.000000
    3        5.279036   1.000000
    4        8.204652   0.000003
    5       11.629972   0.000000
    6       12.101284   0.000000
    7       14.440348   0.000000
    8       14.728008   0.000000
 
 -0.6250000E-01  0.1875000E+00  0.6250000E-01  0.1562500E-01
    1       -4.426888   1.000000
    2        3.347123   1.000000
    3        4.688511   1.000000
    4        8.698176   0.000000
    5       11.108285   0.000000
    6       11.740388   0.000000
    7       12.225343   0.000000
    8       13.763584   0.000000
 
  0.3125000E+00  0.3125000E+00  0.6250000E-01  0.1562500E-01
    1        0.255816   1.000000
    2        0.399410   1.000000
    3        3.694642   1.000000
    4        6.079007   1.000000
    5        8.822754   0.000000
    6        9.493340   0.000000
    7       13.354243   0.000000
    8       14.002283   0.000000
 
  0.4375000E+00  0.3125000E+00  0.6250000E-01  0.3125000E-01
    1       -1.730522   1.000000
    2       -0.329203   1.000000
    3        6.689532   1.000000
    4        7.511440   0.647851
    5        8.972704   0.000000
    6       10.176590   0.000000
    7       11.357216   0.000000
    8       12.656241   0.000000
 
 -0.4375000E+00  0.3125000E+00  0.6250000E-01  0.1562500E-01
    1       -3.166245   1.000000
    2       -0.338482   1.000000
    3        7.148215   0.998400
    4        9.205417   0.000000
    5        9.446051   0.000000
    6       11.548731   0.000000
    7       12.020541   0.000000
    8       12.187307   0.000000
 
 -0.3125000E+00  0.3125000E+00  0.6250000E-01  0.1562500E-01
    1       -3.890892   1.000000
    2        0.339452   1.000000
    3        5.927454   1.000000
    4        9.141966   0.000000
    5        9.819565   0.000000
    6       12.985022   0.000000
    7       14.342173   0.000000
    8       14.817832   0.000000
 
 -0.1875000E+00  0.3125000E+00  0.6250000E-01  0.3125000E-01
    1       -3.886007   1.000000
    2        1.649936   1.000000
    3        4.771644   1.000000
    4        9.461756   0.000000
    5       10.036667   0.000000
    6       11.390592   0.000000
    7       13.173019   0.000000
    8       14.059675   0.000000
 
 -0.6250000E-01  0.3125000E+00  0.6250000E-01  0.1562500E-01
    1       -3.153899   1.000000
    2        3.107918   1.000000
    3        4.632745   1.000000
    4        7.116583   0.999242
    5        9.795035   0.000000
    6       11.403236   0.000000
    7       11.739144   0.000000
    8       12.212511   0.000000
 
  0.4375000E+00  0.4375000E+00  0.6250000E-01  0.7812500E-02
    1       -1.918937   1.000000
    2       -1.918937   1.000000
    3        8.190756   0.000005
    4        8.190757   0.000005
    5       10.429036   0.000000
    6       10.429036   0.000000
    7       11.740458   0.000000
    8       11.740459   0.000000
 
 -0.4375000E+00  0.4375000E+00  0.6250000E-01  0.1562500E-01
    1       -2.815031   1.000000
    2       -1.397388   1.000000
    3        6.918666   0.999998
    4        8.226097   0.000001
    5       10.215749   0.000000
    6       11.514197   0.000000
    7       14.264692   0.000000
    8       14.395763   0.000000
 
 -0.3125000E+00  0.4375000E+00  0.6250000E-01  0.3125000E-01
    1       -2.989998   1.000000
    2       -0.182695   1.000000
    3        5.550655   1.000000
    4        8.090647   0.000101
    5       10.071509   0.000000
    6       11.516128   0.000000
    7       12.896870   0.000000
    8       14.106823   0.000000
 
 -0.1875000E+00  0.4375000E+00  0.6250000E-01  0.3125000E-01
    1       -2.443443   1.000000
    2        1.627478   1.000000
    3        4.754596   1.000000
    4        6.497478   1.000000
    5        8.734679   0.000000
    6       10.871131   0.000000
    7       12.751743   0.000000
    8       13.615489   0.000000
 
 -0.6250000E-01  0.4375000E+00  0.6250000E-01  0.1562500E-01
    1       -1.211040   1.000000
    2        2.781614   1.000000
    3        4.470100   1.000000
    4        5.095500   1.000000
    5        7.887428   0.011330
    6       10.376901   0.000000
    7       10.619418   0.000000
    8       13.518236   0.000000
 
 -0.4375000E+00 -0.4375000E+00  0.6250000E-01  0.1562500E-01
    1       -1.755732   1.000000
    2       -1.741755   1.000000
    3        6.636701   1.000000
    4        6.730200   1.000000
    5       10.003532   0.000000
    6       12.043937   0.000000
    7       12.899779   0.000000
    8       13.153774   0.000000
 
 -0.3125000E+00 -0.4375000E+00  0.6250000E-01  0.3125000E-01
    1       -1.389280   1.000000
    2       -0.009978   1.000000
    3        5.403992   1.000000
    4        6.286146   1.000000
    5        7.419279   0.848777
    6       10.497479   0.000000
    7       13.857308   0.000000
    8       14.862094   0.000000
 
 -0.1875000E+00 -0.4375000E+00  0.6250000E-01  0.3125000E-01
    1       -0.377641   1.000000
    2        1.940324   1.000000
    3        3.398908   1.000000
    4        5.547643   1.000000
    5        7.604117   0.391352
    6        9.289987   0.000000
    7       11.767617   0.000000
    8       14.864310   0.000000
 
 -0.6250000E-01 -0.4375000E+00  0.6250000E-01  0.1562500E-01
    1       -0.123638   1.000000
    2        1.787892   1.000000
    3        5.241220   1.000000
    4        5.847967   1.000000
    5        6.479706   1.000000
    6        9.286196   0.000000
    7       10.272468   0.000000
    8       13.915723   0.000000
 
 -0.3125000E+00 -0.3125000E+00  0.6250000E-01  0.1562500E-01
    1        0.562975   1.000000
    2        0.935575   1.000000
    3        3.009965   1.000000
    4        6.343564   1.000000
    5        6.809931   1.000000
    6        8.869881   0.000000
    7       13.558950   0.000000
    8       14.094201   0.000000
 
 -0.1875000E+00 -0.3125000E+00  0.6250000E-01  0.3125000E-01
    1       -0.384178   1.000000
    2        2.688034   1.000000
    3        4.007469   1.000000
    4        6.176651   1.000000
    5        7.132865   0.998880
    6        8.807181   0.000000
    7       10.598885   0.000000
    8       12.789052   0.000000
 
 -0.6250000E-01 -0.3125000E+00  0.6250000E-01  0.1562500E-01
    1       -2.248689   1.000000
    2        4.494839   1.000000
    3        6.046942   1.000000
    4        6.145962   1.000000
    5        7.110231   0.999351
    6        9.872006   0.000000
    7       10.033990   0.000000
    8       12.233702   0.000000
 
 -0.1875000E+00 -0.1875000E+00  0.6250000E-01  0.1562500E-01
    1       -2.424443   1.000000
    2        5.183343   1.000000
    3        5.919536   1.000000
    4        6.515660   1.000000
    5        7.625250   0.335335
    6        8.792285   0.000000
    7       10.630054   0.000000
    8       10.791946   0.000000
 
 -0.6250000E-01 -0.1875000E+00  0.6250000E-01  0.1562500E-01
    1       -3.870448   1.000000
    2        5.185505   1.000000
    3        6.003362   1.000000
    4        7.729787   0.122127
    5        9.217447   0.000000
    6        9.651978   0.000000
    7       11.179478   0.000000
    8       12.470277   0.000000
 
 -0.6250000E-01 -0.6250000E-01  0.6250000E-01  0.3906250E-02
    1       -4.788962   1.000000
    2        5.736403   1.000000
    3        5.736404   1.000000
    4        5.805343   1.000000
    5       10.064925   0.000000
    6       12.475673   0.000000
    7       12.718723   0.000000
    8       14.701427   0.000000
 
  0.1875000E+00  0.1875000E+00  0.1875000E+00  0.1562500E-01
    1       -1.024341   1.000000
    2        1.677459   1.000000
    3        4.869493   1.000000
    4        5.032278   1.000000
    5        9.511497   0.000000
    6       11.127437   0.000000
    7       12.419018   0.000000
    8       12.753347   0.000000
 
  0.3125000E+00  0.1875000E+00  0.1875000E+00  0.1562500E-01
    1        0.849438   1.000000
    2        1.721623   1.000000
    3        2.983750   1.000000
    4        3.758072   1.000000
    5       10.222783   0.000000
    6       12.169149   0.000000
    7       12.361328   0.000000
    8       12.521729   0.000000
 
 -0.1875000E+00  0.1875000E+00  0.1875000E+00  0.7812500E-02
    1       -4.252613   1.000000
    2        2.117540   1.000000
    3        3.673713   1.000000
    4        9.691819   0.000000
    5       10.198324   0.000000
    6       13.140603   0.000000
    7       14.159852   0.000000
    8       14.370833   0.000000
 
  0.3125000E+00  0.3125000E+00  0.1875000E+00  0.7812500E-02
    1        0.177274   1.000000
    2        0.177274   1.000000
    3        4.783105   1.000000
    4        4.783106   1.000000
    5       10.748301   0.000000
    6       10.748303   0.000000
    7       12.283209   0.000000
    8       12.283213   0.000000
 
 -0.3125000E+00  0.3125000E+00  0.1875000E+00  0.1562500E-01
    1       -3.534659   1.000000
    2        0.598238   1.000000
    3        3.843971   1.000000
    4        7.779005   0.065211
    5       11.462063   0.000000
    6       13.496097   0.000000
    7       14.032113   0.000000
    8       15.557049   0.000000
 
 -0.1875000E+00  0.3125000E+00  0.1875000E+00  0.1562500E-01
    1       -3.350177   1.000000
    2        1.572589   1.000000
    3        3.232271   1.000000
    4        7.844243   0.024206
    5        9.869326   0.000000
    6       12.678328   0.000000
    7       14.165256   0.000000
    8       14.791417   0.000000
 
 -0.4375000E+00  0.4375000E+00  0.1875000E+00  0.1562500E-01
    1       -2.467831   1.000000
    2       -1.070785   1.000000
    3        4.793050   1.000000
    4        6.125842   1.000000
    5       12.318899   0.000000
    6       12.939209   0.000000
    7       14.130144   0.000000
    8       14.822276   0.000000
 
 -0.3125000E+00  0.4375000E+00  0.1875000E+00  0.3125000E-01
    1       -2.464937   1.000000
    2        0.241457   1.000000
    3        3.530044   1.000000
    4        6.105397   1.000000
    5        9.402073   0.000000
    6       13.815078   0.000000
    7       14.521294   0.000000
    8       16.185234   0.000000
 
 -0.1875000E+00  0.4375000E+00  0.1875000E+00  0.1562500E-01
    1       -1.745828   1.000000
    2        1.688400   1.000000
    3        3.430850   1.000000
    4        5.703922   1.000000
    5        7.097919   0.999523
    6       11.955962   0.000000
    7       13.550775   0.000000
    8       15.011817   0.000000
 
 -0.4375000E+00 -0.4375000E+00  0.1875000E+00  0.1562500E-01
    1       -1.262981   1.000000
    2       -1.232772   1.000000
    3        4.596340   1.000000
    4        4.665081   1.000000
    5        9.239135   0.000000
    6       13.953089   0.000000
    7       15.384721   0.000000
    8       15.602756   0.000000
 
 -0.3125000E+00 -0.4375000E+00  0.1875000E+00  0.3125000E-01
    1       -0.722179   1.000000
    2        0.572402   1.000000
    3        3.814420   1.000000
    4        4.899180   1.000000
    5        5.996989   1.000000
    6       12.158400   0.000000
    7       14.993647   0.000000
    8       16.118489   0.000000
 
 -0.1875000E+00 -0.4375000E+00  0.1875000E+00  0.1562500E-01
    1        0.350617   1.000000
    2        1.856517   1.000000
    3        3.479574   1.000000
    4        4.257738   1.000000
    5        6.369450   1.000000
    6       10.198657   0.000000
    7       11.754734   0.000000
    8       15.040855   0.000000
 
 -0.3125000E+00 -0.3125000E+00  0.1875000E+00  0.1562500E-01
    1        0.884698   1.000000
    2        1.745926   1.000000
    3        2.941283   1.000000
    4        4.902537   1.000000
    5        5.082628   1.000000
    6       10.475452   0.000000
    7       13.061464   0.000000
    8       13.657168   0.000000
 
 -0.1875000E+00 -0.3125000E+00  0.1875000E+00  0.1562500E-01
    1       -0.698478   1.000000
    2        3.637998   1.000000
    3        4.585354   1.000000
    4        5.572919   1.000000
    5        6.375905   1.000000
    6        9.098999   0.000000
    7       10.519958   0.000000
    8       11.787462   0.000000
 
 -0.1875000E+00 -0.1875000E+00  0.1875000E+00  0.3906250E-02
    1       -2.601112   1.000000
    2        6.620949   1.000000
    3        6.620950   1.000000
    4        6.687253   1.000000
    5        6.889294   0.999999
    6        7.936676   0.004303
    7       10.367041   0.000000
    8       10.367043   0.000000
 
 -0.3125000E+00  0.3125000E+00  0.3125000E+00  0.7812500E-02
    1       -2.827753   1.000000
    2        0.682353   1.000000
    3        2.418146   1.000000
    4        5.817379   1.000000
    5       12.538292   0.000000
    6       12.996010   0.000000
    7       14.879089   0.000000
    8       16.975496   0.000000
 
 -0.4375000E+00  0.4375000E+00  0.3125000E+00  0.1562500E-01
    1       -1.786637   1.000000
    2       -0.470692   1.000000
    3        2.869455   1.000000
    4        4.149153   1.000000
    5       12.556013   0.000000
    6       12.657240   0.000000
    7       16.147297   0.000000
    8       17.176902   0.000000
 
 -0.3125000E+00  0.4375000E+00  0.3125000E+00  0.1562500E-01
    1       -1.606390   1.000000
    2        0.492562   1.000000
    3        2.267395   1.000000
    4        4.307483   1.000000
    5        8.912884   0.000000
    6       15.059320   0.000000
    7       16.505194   0.000000
    8       16.964035   0.000000
 
 -0.4375000E+00 -0.4375000E+00  0.3125000E+00  0.1562500E-01
    1       -0.500475   1.000000
    2       -0.446587   1.000000
    3        2.855842   1.000000
    4        2.891116   1.000000
    5        8.746730   0.000000
    6       15.244345   0.000000
    7       17.430365   0.000000
    8       17.756872   0.000000
 
 -0.3125000E+00 -0.4375000E+00  0.3125000E+00  0.1562500E-01
    1        0.200678   1.000000
    2        0.985013   1.000000
    3        2.791431   1.000000
    4        3.506593   1.000000
    5        5.434317   1.000000
    6       13.681690   0.000000
    7       15.126620   0.000000
    8       16.168303   0.000000
 
 -0.3125000E+00 -0.3125000E+00  0.3125000E+00  0.3906250E-02
    1        0.988138   1.000000
    2        2.404103   1.000000
    3        3.466331   1.000000
    4        3.957763   1.000000
    5        3.957763   1.000000
    6       11.922116   0.000000
    7       12.889262   0.000000
    8       12.889268   0.000000
 
 -0.4375000E+00  0.4375000E+00  0.4375000E+00  0.7812500E-02
    1       -0.830149   1.000000
    2       -0.042661   1.000000
    3        1.760431   1.000000
    4        2.536120   1.000000
    5       12.358984   0.000000
    6       12.382452   0.000000
    7       18.247980   0.000000
    8       18.795272   0.000000
 
 -0.4375000E+00 -0.4375000E+00  0.4375000E+00  0.3906250E-02
    1        0.087057   1.000000
    2        0.172856   1.000000
    3        1.937568   1.000000
    4        1.937568   1.000000
    5        8.580294   0.000000
    6       15.574573   0.000000
    7       18.122513   0.000000
    8       18.122700   0.000000
