 running on    8 total cores
 distrk:  each k-point on    8 cores,    1 groups
 distr:  one band on    1 cores,    8 groups
 using from now: INCAR     
 vasp.5.4.4.18Apr17-6-g9f103f2a35 (build Dec 09 2018 21:25:21) complex          
  
 POSCAR found type information on POSCAR  Si
 POSCAR found :  1 types and       2 ions
 scaLAPACK will be used

 ----------------------------------------------------------------------------- 
|                                                                             |
|           W    W    AA    RRRRR   N    N  II  N    N   GGGG   !!!           |
|           W    W   A  A   R    R  NN   N  II  NN   N  G    G  !!!           |
|           W    W  A    A  R    R  N N  N  II  N N  N  G       !!!           |
|           W WW W  AAAAAA  RRRRR   N  N N  II  N  N N  G  GGG   !            |
|           WW  WW  A    A  R   R   N   NN  II  N   NN  G    G                |
|           W    W  A    A  R    R  N    N  II  N    N   GGGG   !!!           |
|                                                                             |
|      For optimal performance we recommend to set                            |
|        NCORE= 4 - approx SQRT( number of cores)                             |
|      NCORE specifies how many cores store one orbital (NPAR=cpu/NCORE).     |
|      This setting can  greatly improve the performance of VASP for DFT.     |
|      The default,   NCORE=1            might be grossly inefficient         |
|      on modern multi-core architectures or massively parallel machines.     |
|      Do your own testing !!!!                                               |
|      Unfortunately you need to use the default for GW and RPA calculations. |
|      (for HF NCORE is supported but not extensively tested yet)             |
|                                                                             |
 ----------------------------------------------------------------------------- 

 LDA part: xc-table for Pade appr. of Perdew
 POSCAR, INCAR and KPOINTS ok, starting setup
 FFT: planning ...
 WAVECAR not read
 entering main loop
       N       E                     dE             d eps       ncg     rms          rms(c)
DAV:   1     0.781743997329E+00    0.78174E+00   -0.27089E+03   904   0.572E+02
DAV:   2    -0.100215424537E+02   -0.10803E+02   -0.10600E+02  1360   0.637E+01
DAV:   3    -0.101554527589E+02   -0.13391E+00   -0.13351E+00  1192   0.843E+00
DAV:   4    -0.101559171373E+02   -0.46438E-03   -0.46437E-03  1392   0.506E-01
DAV:   5    -0.101559174106E+02   -0.27326E-06   -0.27372E-06  1168   0.848E-03    0.150E+00
DAV:   6    -0.101480399524E+02    0.78775E-02   -0.62555E-03  1224   0.486E-01    0.928E-01
DAV:   7    -0.101432909211E+02    0.47490E-02   -0.15140E-02  1136   0.778E-01    0.602E-02
DAV:   8    -0.101432370041E+02    0.53917E-04   -0.56117E-04   688   0.171E-01
   1 F= -.10143237E+02 E0= -.10134210E+02  d E =-.101432E+02
 curvature:   0.00 expect dE= 0.000E+00 dE for cont linesearch  0.000E+00
 trial: gam= 0.00000 g(F)=  0.160E-47 g(S)=  0.000E+00 ort = 0.000E+00 (trialstep = 0.100E+01)
 search vector abs. value=  0.100E-09
 reached required accuracy - stopping structural energy minimisation
 writing wavefunctions
