unknown system                          
           1
    -2.477237    2.477237    1.413610
     2.477237   -2.477237    1.413610
     2.477237    2.477237   -1.413610
   Si
   2
Direct configuration=     1
   0.00000000  0.00000000  0.00000000
   0.25000000  0.75000000  0.50000000
