    2    2   15    1
  0.1529437E+02  0.3691622E-09  0.3691622E-09  0.3691622E-09  0.5000000E-15
  1.000000000000000E-004
  CAR 
 unknown system                          
      8     18      8
 
  0.0000000E+00  0.0000000E+00  0.0000000E+00  0.8000000E-02
    1       -4.673491   1.000000
    2        5.492229   1.000000
    3        5.988848   1.000000
    4        5.988860   1.000000
    5       10.395321   0.000000
    6       16.668919   0.000000
    7       16.695850   0.000000
    8       16.695867   0.000000
 
  0.2000000E+00  0.1244391E-16 -0.1244391E-16  0.6400000E-01
    1       -3.514172   1.000000
    2        4.610320   1.000000
    3        6.079783   1.000000
    4        8.841850   0.867650
    5       12.479090   0.000000
    6       13.113420   0.000000
    7       13.372821   0.000000
    8       15.332346   0.000000
 
  0.4000000E+00  0.2488782E-16 -0.2488782E-16  0.6400000E-01
    1       -0.083915   1.000000
    2        5.382818   1.000000
    3        5.727515   1.000000
    4        7.283168   1.000000
    5        8.918055   0.717861
    6       11.540546   0.000000
    7       13.418630   0.000000
    8       14.049020   0.000000
 
  0.2000000E+00  0.2000000E+00 -0.2488782E-16  0.6400000E-01
    1       -0.530036   1.000000
    2        5.847910   1.000000
    3        7.000277   1.000000
    4        7.006902   1.000000
    5        9.637757   0.000003
    6       11.602389   0.000000
    7       12.455383   0.000000
    8       12.641627   0.000000
 
  0.4000000E+00  0.2000000E+00 -0.9576153E-17  0.1280000E+00
    1        1.237926   1.000000
    2        3.353588   1.000000
    3        4.654548   1.000000
    4        7.658476   1.000000
    5        8.970296   0.582034
    6       10.892028   0.000000
    7       13.851484   0.000000
    8       15.945678   0.000000
 
 -0.4000000E+00  0.2000000E+00  0.2251918E-16  0.1280000E+00
    1       -2.604360   1.000000
    2        1.795129   1.000000
    3        6.489253   1.000000
    4       10.327646   0.000000
    5       10.726590   0.000000
    6       12.313385   0.000000
    7       14.237447   0.000000
    8       15.439963   0.000000
 
 -0.2000000E+00  0.2000000E+00  0.2101777E-17  0.3200000E-01
    1       -4.214552   1.000000
    2        2.400162   1.000000
    3        6.421356   1.000000
    4        7.843763   1.000000
    5       12.846996   0.000000
    6       12.881501   0.000000
    7       14.392648   0.000000
    8       19.990113   0.000000
 
  0.4000000E+00  0.4000000E+00 -0.4977564E-16  0.6400000E-01
    1       -0.809347   1.000000
    2       -0.807257   1.000000
    3        8.124901   1.000000
    4        8.198094   1.000000
    5       10.886237   0.000000
    6       12.688079   0.000000
    7       13.733121   0.000000
    8       13.927698   0.000000
 
 -0.4000000E+00  0.4000000E+00  0.4203554E-17  0.3200000E-01
    1       -2.846927   1.000000
    2       -0.607570   1.000000
    3        7.719261   1.000000
    4        9.426701   0.001263
    5        9.877801   0.000000
    6       11.609506   0.000000
    7       17.794711   0.000000
    8       19.573871   0.000000
 
  0.2000000E+00  0.2000000E+00  0.2000000E+00  0.6400000E-01
    1        0.808106   1.000000
    2        2.987793   1.000000
    3        6.275398   1.000000
    4        6.283365   1.000000
    5       11.165483   0.000000
    6       12.769878   0.000000
    7       13.718225   0.000000
    8       14.214975   0.000000
 
 -0.2000000E+00  0.2000000E+00  0.2000000E+00  0.3200000E-01
    1       -3.758767   1.000000
    2        2.169944   1.000000
    3        4.007688   1.000000
    4        9.796375   0.000000
    5       10.841105   0.000000
    6       14.148032   0.000000
    7       17.452734   0.000000
    8       17.922343   0.000000
 
 -0.4000000E+00  0.4000000E+00  0.2000000E+00  0.6400000E-01
    1       -2.405609   1.000000
    2       -0.221629   1.000000
    3        4.675185   1.000000
    4        6.807294   1.000000
    5       13.052655   0.000000
    6       15.199351   0.000000
    7       18.196013   0.000000
    8       18.618988   0.000000
 
 -0.2000000E+00  0.4000000E+00  0.2000000E+00  0.6400000E-01
    1       -1.712222   1.000000
    2        1.940892   1.000000
    3        3.883992   1.000000
    4        7.440893   1.000000
    5       10.418147   0.000000
    6       14.982974   0.000000
    7       16.341988   0.000000
    8       17.357439   0.000000
 
 -0.4000000E+00 -0.4000000E+00  0.2000000E+00  0.6400000E-01
    1        0.010717   1.000000
    2        0.017233   1.000000
    3        4.920008   1.000000
    4        4.924308   1.000000
    5       10.061627   0.000000
    6       16.343469   0.000000
    7       17.123681   0.000000
    8       17.837165   0.000000
 
 -0.2000000E+00 -0.4000000E+00  0.2000000E+00  0.6400000E-01
    1        2.471128   1.000000
    2        3.640667   1.000000
    3        4.103741   1.000000
    4        5.845676   1.000000
    5        7.213929   1.000000
    6       11.985402   0.000000
    7       13.577489   0.000000
    8       15.935688   0.000000
 
 -0.2000000E+00 -0.2000000E+00  0.2000000E+00  0.1600000E-01
    1       -0.981438   1.000000
    2        7.547714   1.000000
    3        8.073082   1.000000
    4        8.528013   0.999573
    5        8.528025   0.999573
    6        9.811875   0.000000
    7       11.543364   0.000000
    8       11.543386   0.000000
 
 -0.4000000E+00  0.4000000E+00  0.4000000E+00  0.3200000E-01
    1       -1.127906   1.000000
    2        0.348676   1.000000
    3        2.381051   1.000000
    4        3.837597   1.000000
    5       16.392106   0.000000
    6       17.181377   0.000000
    7       18.757135   0.000000
    8       19.489430   0.000000
 
 -0.4000000E+00 -0.4000000E+00  0.4000000E+00  0.1600000E-01
    1        1.026378   1.000000
    2        1.037506   1.000000
    3        3.052595   1.000000
    4        3.052596   1.000000
    5        9.682510   0.000001
    6       18.224075   0.000000
    7       19.605524   0.000000
    8       19.605536   0.000000
