       N       E                     dE             d eps       ncg     rms          rms(c)
DAV:   1    -0.286547493842E+01   -0.28655E+01   -0.20313E+03   296   0.378E+02
DAV:   2    -0.101559036452E+02   -0.72904E+01   -0.65425E+01   440   0.480E+01
DAV:   3    -0.102082941806E+02   -0.52391E-01   -0.52103E-01   336   0.516E+00
DAV:   4    -0.102083766163E+02   -0.82436E-04   -0.82435E-04   480   0.205E-01
DAV:   5    -0.102083766849E+02   -0.68604E-07   -0.69298E-07   328   0.331E-03    0.146E+00
DAV:   6    -0.102018889222E+02    0.64878E-02   -0.18557E-03   384   0.307E-01    0.914E-01
DAV:   7    -0.101969550413E+02    0.49339E-02   -0.54073E-03   288   0.541E-01    0.346E-02
DAV:   8    -0.101969344282E+02    0.20613E-04   -0.90309E-05   224   0.707E-02
   1 F= -.10196934E+02 E0= -.10187403E+02  d E =-.101969E+02
       N       E                     dE             d eps       ncg     rms          rms(c)
DAV:   1    -0.102289034691E+02   -0.31948E-01   -0.67517E-01   424   0.465E+00    0.555E-01
DAV:   2    -0.102198321311E+02    0.90713E-02   -0.14788E-02   320   0.900E-01    0.309E-01
DAV:   3    -0.102155550951E+02    0.42770E-02   -0.12120E-02   392   0.602E-01    0.283E-02
DAV:   4    -0.102155777090E+02   -0.22614E-04   -0.36787E-04   152   0.155E-01
   2 F= -.10215578E+02 E0= -.10202985E+02  d E =-.186433E-01
       N       E                     dE             d eps       ncg     rms          rms(c)
DAV:   1    -0.102172407394E+02   -0.16856E-02   -0.33701E-02   416   0.106E+00    0.117E-01
DAV:   2    -0.102168367072E+02    0.40403E-03   -0.72694E-04   288   0.202E-01    0.656E-02
DAV:   3    -0.102166418940E+02    0.19481E-03   -0.52936E-04   152   0.130E-01
   3 F= -.10216642E+02 E0= -.10204438E+02  d E =-.197075E-01
       N       E                     dE             d eps       ncg     rms          rms(c)
DAV:   1    -0.102166967553E+02    0.13995E-03   -0.13612E-03   376   0.223E-01    0.224E-02
DAV:   2    -0.102166831138E+02    0.13641E-04   -0.24559E-05   160   0.376E-02
   4 F= -.10216683E+02 E0= -.10204599E+02  d E =-.197487E-01
       N       E                     dE             d eps       ncg     rms          rms(c)
DAV:   1    -0.102166643849E+02    0.32370E-04   -0.11451E-03   384   0.199E-01    0.240E-02
DAV:   2    -0.102166476782E+02    0.16707E-04   -0.27573E-05   144   0.392E-02
   5 F= -.10216648E+02 E0= -.10204685E+02  d E =-.197132E-01
       N       E                     dE             d eps       ncg     rms          rms(c)
DAV:   1    -0.102166800907E+02   -0.15706E-04   -0.72661E-04   272   0.155E-01    0.154E-02
DAV:   2    -0.102166742606E+02    0.58301E-05   -0.25452E-05   144   0.395E-02
   6 F= -.10216674E+02 E0= -.10204625E+02  d E =-.197398E-01
       N       E                     dE             d eps       ncg     rms          rms(c)
DAV:   1    -0.102166767518E+02    0.33388E-05   -0.48702E-05   144   0.418E-02    0.571E-03
DAV:   2    -0.102166758594E+02    0.89245E-06   -0.24507E-06   144   0.117E-02
   7 F= -.10216676E+02 E0= -.10204600E+02  d E =-.197414E-01
       N       E                     dE             d eps       ncg     rms          rms(c)
DAV:   1    -0.102166760086E+02    0.74321E-06   -0.19986E-06   144   0.916E-03    0.138E-03
DAV:   2    -0.102166759656E+02    0.43026E-07   -0.16672E-07   144   0.295E-03
   8 F= -.10216676E+02 E0= -.10204595E+02  d E =-.197415E-01
       N       E                     dE             d eps       ncg     rms          rms(c)
DAV:   1    -0.102166761986E+02   -0.18997E-06   -0.17264E-06   144   0.789E-03    0.997E-04
DAV:   2    -0.102166761698E+02    0.28801E-07   -0.73464E-08   144   0.208E-03
   9 F= -.10216676E+02 E0= -.10204590E+02  d E =-.197417E-01
       N       E                     dE             d eps       ncg     rms          rms(c)
DAV:   1    -0.102166762386E+02   -0.40029E-07   -0.53443E-07   144   0.440E-03    0.562E-04
DAV:   2    -0.102166762291E+02    0.95508E-08   -0.23671E-08   144   0.118E-03
  10 F= -.10216676E+02 E0= -.10204588E+02  d E =-.197418E-01
       N       E                     dE             d eps       ncg     rms          rms(c)
DAV:   1    -0.102166762492E+02   -0.10562E-07   -0.12874E-07   144   0.217E-03    0.284E-04
DAV:   2    -0.102166762450E+02    0.41964E-08   -0.59093E-09   144   0.587E-04
  11 F= -.10216676E+02 E0= -.10204587E+02  d E =-.197418E-01
       N       E                     dE             d eps       ncg     rms          rms(c)
DAV:   1    -0.102166762521E+02   -0.28843E-08   -0.32230E-08   144   0.109E-03    0.144E-04
DAV:   2    -0.102166762508E+02    0.13129E-08   -0.14645E-09   144   0.291E-04
  12 F= -.10216676E+02 E0= -.10204586E+02  d E =-.197418E-01
       N       E                     dE             d eps       ncg     rms          rms(c)
DAV:   1    -0.102166762534E+02   -0.13779E-08   -0.80377E-09   144   0.543E-04    0.751E-05
DAV:   2    -0.102166762529E+02    0.50113E-09   -0.36210E-10   144   0.144E-04
  13 F= -.10216676E+02 E0= -.10204586E+02  d E =-.197418E-01
       N       E                     dE             d eps       ncg     rms          rms(c)
DAV:   1    -0.102166762539E+02   -0.43764E-09   -0.20064E-09   144   0.271E-04    0.427E-05
DAV:   2    -0.102166762542E+02   -0.26958E-09   -0.89502E-11   144   0.715E-05
  14 F= -.10216676E+02 E0= -.10204585E+02  d E =-.197418E-01
       N       E                     dE             d eps       ncg     rms          rms(c)
DAV:   1    -0.102166762547E+02   -0.85430E-09   -0.50192E-10   144   0.136E-04    0.295E-05
DAV:   2    -0.102166762541E+02    0.67416E-09   -0.22145E-11   144   0.356E-05
  15 F= -.10216676E+02 E0= -.10204585E+02  d E =-.197418E-01
