unknown system                          
           1
    -2.450000    2.450000    1.274000
     2.450000   -2.450000    1.274000
     2.450000    2.450000   -1.274000
   Si
   2
Direct configuration=     1
   0.25000000  0.75000000  0.50000000
   0.00000000  0.00000000  0.00000000
unknown system                          
           1
    -2.481524    2.481524    1.252271
     2.481524   -2.481524    1.252271
     2.481524    2.481524   -1.252271
   Si
   2
Direct configuration=     2
   0.25000000  0.75000000  0.50000000
  -0.00000000  0.00000000 -0.00000000
unknown system                          
           1
    -2.488501    2.488501    1.247461
     2.488501   -2.488501    1.247461
     2.488501    2.488501   -1.247461
   Si
   2
Direct configuration=     3
   0.25000000  0.75000000  0.50000000
  -0.00000000  0.00000000 -0.00000000
unknown system                          
           1
    -2.489874    2.489874    1.246515
     2.489874   -2.489874    1.246515
     2.489874    2.489874   -1.246515
   Si
   2
Direct configuration=     4
   0.25000000  0.75000000  0.50000000
  -0.00000000  0.00000000 -0.00000000
unknown system                          
           1
    -2.491320    2.491320    1.245518
     2.491320   -2.491320    1.245518
     2.491320    2.491320   -1.245518
   Si
   2
Direct configuration=     5
   0.25000000  0.75000000  0.50000000
  -0.00000000  0.00000000 -0.00000000
unknown system                          
           1
    -2.490439    2.490439    1.246126
     2.490439   -2.490439    1.246126
     2.490439    2.490439   -1.246126
   Si
   2
Direct configuration=     6
   0.25000000  0.75000000  0.50000000
  -0.00000000  0.00000000 -0.00000000
unknown system                          
           1
    -2.490079    2.490079    1.246373
     2.490079   -2.490079    1.246373
     2.490079    2.490079   -1.246373
   Si
   2
Direct configuration=     7
   0.25000000  0.75000000  0.50000000
  -0.00000000  0.00000000 -0.00000000
unknown system                          
           1
    -2.489999    2.489999    1.246429
     2.489999   -2.489999    1.246429
     2.489999    2.489999   -1.246429
   Si
   2
Direct configuration=     8
   0.25000000  0.75000000  0.50000000
  -0.00000000  0.00000000 -0.00000000
unknown system                          
           1
    -2.489942    2.489942    1.246468
     2.489942   -2.489942    1.246468
     2.489942    2.489942   -1.246468
   Si
   2
Direct configuration=     9
   0.25000000  0.75000000  0.50000000
  -0.00000000  0.00000000 -0.00000000
unknown system                          
           1
    -2.489908    2.489908    1.246491
     2.489908   -2.489908    1.246491
     2.489908    2.489908   -1.246491
   Si
   2
Direct configuration=    10
   0.25000000  0.75000000  0.50000000
  -0.00000000  0.00000000 -0.00000000
unknown system                          
           1
    -2.489891    2.489891    1.246503
     2.489891   -2.489891    1.246503
     2.489891    2.489891   -1.246503
   Si
   2
Direct configuration=    11
   0.25000000  0.75000000  0.50000000
  -0.00000000  0.00000000 -0.00000000
unknown system                          
           1
    -2.489883    2.489883    1.246509
     2.489883   -2.489883    1.246509
     2.489883    2.489883   -1.246509
   Si
   2
Direct configuration=    12
   0.25000000  0.75000000  0.50000000
  -0.00000000  0.00000000 -0.00000000
unknown system                          
           1
    -2.489879    2.489879    1.246512
     2.489879   -2.489879    1.246512
     2.489879    2.489879   -1.246512
   Si
   2
Direct configuration=    13
   0.25000000  0.75000000  0.50000000
  -0.00000000  0.00000000 -0.00000000
unknown system                          
           1
    -2.489877    2.489877    1.246513
     2.489877   -2.489877    1.246513
     2.489877    2.489877   -1.246513
   Si
   2
Direct configuration=    14
   0.25000000  0.75000000  0.50000000
  -0.00000000  0.00000000 -0.00000000
unknown system                          
           1
    -2.489875    2.489875    1.246514
     2.489875   -2.489875    1.246514
     2.489875    2.489875   -1.246514
   Si
   2
Direct configuration=    15
   0.25000000  0.75000000  0.50000000
  -0.00000000  0.00000000 -0.00000000
