unknown system                          
   1.00000000000000     
    -2.450000    2.450000    1.274000
     2.450000   -2.450000    1.274000
     2.450000    2.450000   -1.274000
   Si
     2
Direct
  0.250000  0.750000  0.500000
  0.000000  0.000000  0.000000
 
   28   28   28
 -5.4737     -3.9305     0.78731E-01  5.0158      9.1847      11.476      11.715      10.515      8.8109      7.1859    
  5.8159      4.7688      4.0479      3.6299      3.4932      3.6298      4.0479      4.7689      5.8160      7.1858    
  8.8109      10.515      11.715      11.476      9.1847      5.0157     0.78514E-01 -3.9308     -3.9308     -4.7394    
 -2.5875      1.6545      6.3764      10.010      11.685      11.451      10.037      8.3351      6.7743      5.4922    
  4.5366      3.9004      3.5587      3.4928      3.6988      4.1886      4.9855      6.1091      7.5448      9.2073    
  10.876      11.858      11.250      8.5882      4.2553     -.48312     0.78514E-01 -2.5877     -2.6716     -.15008    
  3.9438      8.0571      10.858      11.766      11.038      9.4651      7.8041      6.3318      5.1547      4.3002    
  3.7532      3.4887      3.4919      3.7629      4.3162      5.1757      6.3561      7.8323      9.5047      11.114    
  11.920      11.106      8.3710      4.2553      5.0157      1.6544     -.15016     0.35642      2.9439      6.5268    
  9.7278      11.525      11.634      10.478      8.8375      7.2462      5.8822      4.8208      4.0715      3.6134    
  3.4237      3.4913      3.8193      4.4244      5.3294      6.5437      8.0331      9.6889      11.231      11.936    
  11.106      8.5882      9.1847      6.3764      3.9438      2.9439      3.8206      6.1696      8.9640      11.089    
  11.861      11.261      9.8144      8.1886      6.6924      5.4499      4.5079      3.8620      3.4886      3.3677    
  3.4914      3.8654      4.5072      5.4377      6.6610      8.1364      9.7513      11.231      11.920      11.250    
  11.476      10.010      8.0571      6.5269      6.1697      7.1671      9.0350      10.896      11.941      11.808    
  10.684      9.1168      7.5551      6.1730      5.0575      4.2319      3.6824      3.3852      3.3236      3.4923    
  3.8984      4.5594      5.4937      6.7010      8.1364      9.6889      11.114      11.858      11.715      11.685    
  10.858      9.7278      8.9641      9.0351      9.9339      11.184      12.114      12.222      11.412      9.9984    
  8.4409      6.9729      5.7153      4.7243      4.0058      3.5410      3.3083      3.2935      3.4933      3.9156    
  4.5772      5.4937      6.6610      8.0331      9.5047      10.876      10.515      11.451      11.766      11.525    
  11.089      10.896      11.184      11.839      12.458      12.593      12.008      10.801      9.3181      7.8279    
  6.4732      5.3411      4.4644      3.8387      3.4440      3.2611      3.2783      3.4938      3.9156      4.5594    
  5.4377      6.5437      7.8323      9.2073      8.8109      10.037      11.038      11.634      11.861      11.941    
  12.114      12.459      12.819      12.902      12.467      11.481      10.146      8.7062      7.3142      6.0803    
  5.0653      4.2871      3.7365      3.3947      3.2452      3.2783      3.4933      3.8984      4.5072      5.3294    
  6.3561      7.5448      7.1858      8.3351      9.4653      10.479      11.261      11.808      12.222      12.593    
  12.902      13.004      12.722      11.978      10.865      9.5599      8.2066      6.9283      5.8106      4.8970    
  4.1975      3.7022      3.3947      3.2611      3.2935      3.4923      3.8654      4.4244      5.1757      6.1091    
  5.8160      6.7742      7.8040      8.8375      9.8145      10.684      11.412      12.008      12.467      12.722    
  12.662      12.213      11.399      10.322      9.0989      7.8539      6.6894      5.6736      4.8405      4.1975    
  3.7365      3.4440      3.3083      3.3236      3.4914      3.8193      4.3162      4.9855      4.7689      5.4923    
  6.3317      7.2461      8.1886      9.1169      9.9984      10.801      11.481      11.978      12.213      12.117    
  11.672      10.912      9.9205      8.8047      7.6718      6.6086      5.6736      4.8970      4.2871      3.8387    
  3.5410      3.3852      3.3677      3.4913      3.7629      4.1886      4.0479      4.5367      5.1547      5.8822    
  6.6922      7.5550      8.4408      9.3182      10.146      10.865      11.399      11.672      11.628      11.255    
  10.590      9.7076      8.7037      7.6718      6.6894      5.8106      5.0653      4.4644      4.0058      3.6824    
  3.4886      3.4237      3.4919      3.6988      3.6298      3.9004      4.3003      4.8208      5.4498      6.1729    
  6.9728      7.8278      8.7062      9.5599      10.322      10.912      11.255      11.298      11.029      10.477    
  9.7076      8.8047      7.8539      6.9283      6.0803      5.3411      4.7243      4.2319      3.8620      3.6134    
  3.4887      3.4928      3.4932      3.5586      3.7530      4.0714      4.5079      5.0574      5.7152      6.4731    
  7.3142      8.2066      9.0989      9.9205      10.590      11.029      11.182      11.029      10.590      9.9205    
  9.0989      8.2066      7.3142      6.4732      5.7153      5.0575      4.5079      4.0715      3.7532      3.5587    
  3.6299      3.4928      3.4886      3.6133      3.8619      4.2318      4.7242      5.3410      6.0802      6.9282    
  7.8539      8.8047      9.7076      10.477      11.029      11.298      11.255      10.912      10.322      9.5599    
  8.7062      7.8279      6.9729      6.1730      5.4499      4.8208      4.3002      3.9004      4.0479      3.6989    
  3.4920      3.4237      3.4884      3.6822      4.0056      4.4643      5.0652      5.8105      6.6893      7.6717    
  8.7037      9.7076      10.590      11.255      11.628      11.672      11.399      10.865      10.146      9.3181    
  8.4409      7.5551      6.6924      5.8822      5.1547      4.5366      4.7688      4.1886      3.7629      3.4913    
  3.3676      3.3851      3.5409      3.8385      4.2870      4.8969      5.6736      6.6086      7.6717      8.8047    
  9.9205      10.912      11.672      12.117      12.213      11.978      11.481      10.801      9.9984      9.1168    
  8.1886      7.2462      6.3318      5.4922      5.8159      4.9854      4.3161      3.8193      3.4914      3.3236    
  3.3082      3.4439      3.7363      4.1973      4.8404      5.6736      6.6893      7.8539      9.0989      10.322    
  11.399      12.213      12.662      12.722      12.467      12.008      11.412      10.684      9.8144      8.8375    
  7.8041      6.7743      7.1859      6.1090      5.1755      4.4242      3.8654      3.4923      3.2935      3.2611    
  3.3946      3.7020      4.1973      4.8969      5.8105      6.9282      8.2066      9.5599      10.865      11.978    
  12.722      13.004      12.902      12.593      12.222      11.808      11.261      10.478      9.4651      8.3351    
  8.8109      7.5448      6.3560      5.3293      4.5071      3.8983      3.4933      3.2784      3.2452      3.3946    
  3.7363      4.2870      5.0652      6.0802      7.3142      8.7062      10.146      11.481      12.467      12.902    
  12.819      12.458      12.114      11.941      11.861      11.634      11.038      10.037      10.515      9.2071    
  7.8322      6.5436      5.4376      4.5593      3.9155      3.4937      3.2784      3.2611      3.4439      3.8385    
  4.4643      5.3410      6.4731      7.8278      9.3182      10.801      12.008      12.593      12.459      11.839    
  11.184      10.896      11.089      11.525      11.766      11.451      11.715      10.876      9.5045      8.0329    
  6.6609      5.4936      4.5771      3.9155      3.4933      3.2935      3.3082      3.5409      4.0056      4.7242    
  5.7152      6.9728      8.4408      9.9984      11.412      12.222      12.114      11.184      9.9339      9.0350    
  8.9640      9.7278      10.858      11.685      11.476      11.858      11.114      9.6887      8.1361      6.7008    
  5.4936      4.5593      3.8983      3.4923      3.3236      3.3851      3.6822      4.2318      5.0574      6.1729    
  7.5550      9.1169      10.684      11.808      11.941      10.896      9.0351      7.1671      6.1696      6.5268    
  8.0571      10.010      9.1847      11.250      11.920      11.231      9.7510      8.1361      6.6609      5.4376    
  4.5071      3.8654      3.4914      3.3676      3.4884      3.8619      4.5079      5.4498      6.6922      8.1886    
  9.8145      11.261      11.861      11.089      8.9641      6.1697      3.8206      2.9439      3.9438      6.3764    
  5.0158      8.5883      11.107      11.936      11.231      9.6887      8.0329      6.5436      5.3293      4.4242    
  3.8193      3.4913      3.4237      3.6133      4.0714      4.8208      5.8822      7.2461      8.8375      10.479    
  11.634      11.525      9.7278      6.5269      2.9439     0.35642     -.15008      1.6545     0.78731E-01  4.2554    
  8.3711      11.107      11.920      11.114      9.5045      7.8322      6.3560      5.1755      4.3161      3.7629    
  3.4920      3.4886      3.7530      4.3003      5.1547      6.3317      7.8040      9.4653      11.038      11.766    
  10.858      8.0571      3.9438     -.15016     -2.6716     -2.5875     -3.9305     -.48286      4.2554      8.5883    
  11.250      11.858      10.876      9.2071      7.5448      6.1090      4.9854      4.1886      3.6989      3.4928    
  3.5586      3.9004      4.5367      5.4923      6.7742      8.3351      10.037      11.451      11.685      10.010    
  6.3764      1.6544     -2.5877     -4.7394     -3.9303     -2.8066     0.69136      5.1988      9.1162      11.329    
  11.589      10.427      8.7317      7.0977      5.7091      4.6390      3.8934      3.4482      3.2781      3.3719    
  3.7362      4.3930      5.3690      6.6689      8.2383      9.9290      11.277      11.403      9.6528      6.0743    
  1.6000     -2.2292     -2.8069     -3.9303     -2.2291      1.6001      6.0744      9.6530      11.404      11.278    
  9.9291      8.2384      6.6690      5.3690      4.3930      3.7362      3.3720      3.2780      3.4480      3.8933    
  4.6390      5.7091      7.0977      8.7317      10.427      11.589      11.329      9.1161      5.1988     0.69120    
 0.81094     -2.0980     -2.5874     -.47654      3.3530      7.4144      10.337      11.434      10.862      9.3558    
  7.7035      6.2218      5.0278      4.1563      3.5932      3.3115      3.2933      3.5370      4.0582      4.8831    
  6.0316      7.4867      9.1599      10.830      11.823      11.304      8.8870      4.9863      5.4942      1.9413    
 -.23386     -.15006      2.1230      5.6079      8.9291      10.973      11.330      10.332      8.7387      7.1526    
  5.7778      4.7014      3.9391      3.4702      3.2695      3.3235      3.6355      4.2235      5.1133      6.3196    
  7.8155      9.5013      11.129      12.006      11.394      9.0465      9.5732      6.6235      3.8670      2.4432    
  2.9438      5.1031      7.9487      10.312      11.387      11.032      9.7073      8.1084      6.6122      5.3584    
  4.4047      3.7509      3.3726      3.2478      3.3678      3.7389      4.3807      5.3171      6.5570      8.0655    
  9.7367      11.315      12.147      11.607      11.897      10.349      8.1447      6.2280      5.4611      6.1694    
  7.9686      9.9838      11.316      11.475      10.543      9.0429      7.4954      6.1089      4.9836      4.1511    
  3.5998      3.3049      3.2479      3.4240      3.8418      4.5207      5.4819      6.7290      8.2212      9.8513    
  11.379      12.230      12.218      12.173      11.189      9.7552      8.6055      8.3276      9.0348      10.307    
  11.435      11.811      11.226      9.9246      8.3946      6.9309      5.6673      4.6704      3.9516      3.4925    
  3.2700      3.2696      3.4891      3.9379      4.6347      5.5973      6.8244      8.2720      9.8351      11.307    
  11.088      12.069      12.326      11.895      11.153      10.619      10.639      11.184      11.869      12.187    
  11.801      10.724      9.2799      7.8001      6.4439      5.3080      4.4321      3.8141      3.4333      3.2696    
  3.3117      3.5590      4.0214      4.7155      5.6557      6.8366      8.2129      9.6856      9.4077      10.718    
  11.745      12.266      12.302      12.110      12.008      12.158      12.458      12.606      12.296      11.414    
  10.116      8.6857      7.2942      6.0585      5.0459      4.2773      3.7435      3.4246      3.3037      3.3720    
  3.6301      4.0874      4.7584      5.6537      6.7644      8.0459      7.7792      9.0147      10.212      11.241    
  11.947      12.325      12.516      12.676      12.845      12.902      12.648      11.949      10.850      9.5430    
  8.1865      6.9064      5.7924      4.8907      4.2110      3.7423      3.4670      3.3712      3.4480      3.6990    
  4.1328      4.7614      5.5916      6.6117      6.3871      7.4273      8.5279      9.6069      10.586      11.387    
  11.976      12.398      12.696      12.838      12.722      12.247      11.407      10.307      9.0704      7.8195    
  6.6586      5.6568      4.8473      4.2353      3.8109      3.5595      3.4699      3.5369      3.7628      4.1558    
  4.7251      5.4734      5.3057      6.1030      7.0100      7.9755      8.9401      9.8501      10.667      11.357    
  11.898      12.263      12.391      12.213      11.702      10.896      9.8753      8.7451      7.6128      6.5648    
  5.6574      4.9174      4.3500      3.9480      3.6999      3.5966      3.6352      3.8191      4.1558      4.6516    
  4.5448      5.0973      5.7751      6.5517      7.3909      8.2531      9.1016      9.9043      10.628      11.226    
  11.640      11.805      11.672      11.231      10.519      9.6102      8.6008      7.5833      6.6317      5.7954    
  5.1002      4.5532      4.1504      3.8835      3.7463      3.7385      3.8651      4.1327      4.0873      4.4099    
  4.8592      5.4219      6.0793      6.8093      7.5879      8.3900      9.1857      9.9347      10.581      11.058    
  11.297      11.255      10.921      10.330      9.5470      8.6553      7.7368      6.8589      6.0684      5.3919    
  4.8398      4.4115      4.1029      3.9119      3.8414      3.8980      3.9153      4.0212      4.2534      4.6045    
  5.0638      5.6205      6.2643      6.9828      7.7578      8.5605      9.3464      10.055      10.613      10.954    
  11.029      10.823      10.361      9.6986      8.9092      8.0681      7.2393      6.4689      5.7848      5.2006    
  4.7209      4.3476      4.0843      3.9377      4.0213      3.9153      3.9376      4.0841      4.3475      4.7208    
  5.2004      5.7847      6.4688      7.2393      8.0681      8.9092      9.6987      10.361      10.823      11.029    
  10.954      10.613      10.054      9.3464      8.5605      7.7578      6.9828      6.2644      5.6206      5.0638    
  4.6045      4.2536      4.4099      4.0874      3.8981      3.8413      3.9117      4.1027      4.4114      4.8397    
  5.3918      6.0683      6.8588      7.7368      8.6553      9.5470      10.330      10.921      11.255      11.297    
  11.058      10.581      9.9346      9.1856      8.3899      7.5879      6.8094      6.0794      5.4219      4.8592    
  5.0972      4.5448      4.1328      3.8652      3.7385      3.7462      3.8834      4.1503      4.5531      5.1001    
  5.7954      6.6316      7.5832      8.6008      9.6101      10.518      11.231      11.672      11.805      11.640    
  11.226      10.627      9.9043      9.1015      8.2531      7.3910      6.5518      5.7751      6.1030      5.3055    
  4.6516      4.1558      3.8192      3.6352      3.5966      3.6998      3.9479      4.3499      4.9174      5.6574    
  6.5648      7.6128      8.7451      9.8752      10.896      11.702      12.213      12.391      12.263      11.898    
  11.357      10.667      9.8499      8.9400      7.9756      7.0101      7.4273      6.3871      5.4733      4.7250    
  4.1558      3.7628      3.5369      3.4699      3.5595      3.8107      4.2352      4.8473      5.6568      6.6585    
  7.8195      9.0703      10.307      11.406      12.247      12.722      12.837      12.695      12.398      11.976    
  11.387      10.586      9.6068      8.5279      9.0147      7.7792      6.6117      5.5915      4.7614      4.1327    
  3.6989      3.4480      3.3712      3.4669      3.7421      4.2110      4.8907      5.7924      6.9063      8.1865    
  9.5430      10.850      11.949      12.648      12.902      12.845      12.676      12.516      12.325      11.946    
  11.241      10.212      10.717      9.4076      8.0458      6.7643      5.6536      4.7583      4.0873      3.6300    
  3.3720      3.3037      3.4245      3.7434      4.2773      5.0459      6.0584      7.2941      8.6857      10.116    
  11.414      12.295      12.606      12.458      12.158      12.008      12.110      12.302      12.265      11.745    
  12.068      11.087      9.6854      8.2127      6.8365      5.6557      4.7154      4.0212      3.5589      3.3117    
  3.2696      3.4332      3.8140      4.4321      5.3080      6.4438      7.8000      9.2799      10.724      11.801    
  12.187      11.869      11.184      10.639      10.619      11.153      11.894      12.326      12.172      12.218    
  11.307      9.8349      8.2717      6.8242      5.5973      4.6346      3.9377      3.4890      3.2696      3.2700    
  3.4925      3.9516      4.6705      5.6673      6.9308      8.3945      9.9247      11.226      11.811      11.435    
  10.307      9.0349      8.3276      8.6054      9.7551      11.189      10.348      11.897      12.230      11.379    
  9.8510      8.2210      6.7289      5.4819      4.5205      3.8417      3.4240      3.2480      3.3048      3.5998    
  4.1512      4.9837      6.1088      7.4953      9.0429      10.543      11.475      11.316      9.9839      7.9688    
  6.1696      5.4612      6.2279      8.1446      6.6234      9.5730      11.607      12.147      11.315      9.7366    
  8.0653      6.5569      5.3170      4.3806      3.7389      3.3679      3.2479      3.3727      3.7509      4.4048    
  5.3585      6.6121      8.1084      9.7073      11.032      11.387      10.312      7.9488      5.1033      2.9440    
  2.4434      3.8671      1.9414      5.4941      9.0464      11.394      12.006      11.129      9.5012      7.8154    
  6.3196      5.1133      4.2234      3.6356      3.3237      3.2696      3.4703      3.9391      4.7015      5.7778    
  7.1525      8.7386      10.332      11.329      10.972      8.9289      5.6080      2.1232     -.14984     -.23362    
 -2.0977     0.81112      4.9863      8.8870      11.305      11.823      10.830      9.1599      7.4867      6.0316    
  4.8831      4.0582      3.5372      3.2934      3.3116      3.5932      4.1563      5.0278      6.2217      7.7034    
  9.3557      10.862      11.434      10.336      7.4143      3.3529     -.47650     -2.5873     0.79494E-01 0.81159    
  3.5086      7.0721      10.154      11.788      11.747      10.489      8.7969      7.1750      5.7891      4.7099    
  3.9446      3.4703      3.2612      3.3038      3.6015      4.1733      5.0462      6.2322      7.6945      9.3168    
  10.806      11.443      10.577      8.1087      4.7024      1.6005     0.69182     -.48203     0.69188      3.7155    
  7.3574      10.273      11.616      11.311      9.9308      8.2599      6.7065      5.4115      4.4299      3.7586    
  3.3714      3.2452      3.3713      3.7585      4.4298      5.4115      6.7064      8.2599      9.9308      11.311    
  11.616      10.273      7.3574      3.7155      3.5086     0.81152     0.79473E-01  1.6005      4.7024      8.1088    
  10.577      11.443      10.806      9.3168      7.6946      6.2323      5.0462      4.1733      3.6015      3.3038    
  3.2610      3.4701      3.9445      4.7098      5.7890      7.1749      8.7968      10.489      11.746      11.788    
  10.154      7.0722      7.3457      4.1384      1.9417      1.6550      3.3532      6.2522      9.1275      10.924    
  11.203      10.225      8.6770      7.1267      5.7740      4.7088      3.9500      3.4788      3.2695      3.3082    
  3.5969      4.1525      5.0010      6.1607      7.6143      9.2784      10.965      12.119      12.012      10.306    
  10.733      8.1397      5.4876      3.8672      3.9440      5.6080      8.0417      10.163      11.163      10.841    
  9.5824      8.0383      6.5806      5.3513      4.4126      3.7681      3.3946      3.2699      3.3851      3.7465    
  4.3729      5.2887      6.5064      7.9999      9.6773      11.338      12.426      12.301      12.619      11.356    
  9.2952      7.2944      6.2279      6.5267      7.9485      9.7235      10.979      11.181      10.340      8.9176    
  7.4265      6.0796      4.9815      4.1691      3.6338      3.3516      3.3047      3.4886      3.9120      4.5940    
  5.5563      6.8054      8.3079      9.9673      11.585      12.650      12.753      12.893      12.033      10.574    
  9.2171      8.6051      8.9635      9.9834      11.011      11.419      10.934      9.7343      8.2765      6.8679    
  5.6449      4.6793      3.9870      3.5519      3.3516      3.3725      3.6134      4.0842      4.8029      5.7873    
  7.0383      8.5172      10.126      11.683      11.613      12.694      13.034      12.597      11.716      10.916    
  10.618      10.895      11.434      11.741      11.436      10.465      9.1037      7.6902      6.3874      5.2948    
  4.4563      3.8729      3.5254      3.3944      3.4701      3.7531      4.2534      4.9866      5.9667      7.1892    
  8.6120      10.140      10.002      11.365      12.439      12.958      12.901      12.508      12.130      12.007    
  12.114      12.186      11.904      11.102      9.8826      8.5191      7.1888      6.0070      5.0431      4.3201    
  3.8305      3.5553      3.4785      3.5930      3.9004      4.4097      5.1341      6.0831      7.2478      8.5842    
  8.4334      9.7176      10.948      11.977      12.624      12.858      12.826      12.731      12.676      12.593    
  12.295      11.622      10.572      9.3177      8.0203      6.7997      5.7440      4.8992      4.2755      3.8618    
  3.6412      3.6011      3.7359      4.0478      4.5447      5.2369      6.1295      7.2097      7.0770      8.1676    
  9.3030      10.390      11.336      12.040      12.462      12.666      12.737      12.696      12.467      11.949    
  11.108      10.030      8.8378      7.6430      6.5450      5.6099      4.8684      4.3242      3.9664      3.7812    
  3.7580      3.8930      4.1885      4.6516      5.2897      6.1035      6.0067      6.8573      7.8027      8.7838    
  9.7301      10.576      11.275      11.792      12.130      12.295      12.263      11.978      11.407      10.583    
  9.5780      8.4889      7.4159      6.4397      5.6112      4.9525      4.4658      4.1426      3.9715      3.9441    
  4.0579      4.3161      4.7252      5.2898      5.2374      5.8444      6.5633      7.3612      8.1936      9.0114    
  9.7702      10.437      10.987      11.395      11.627      11.640      11.399      10.896      10.164      9.2706    
  8.3069      7.3586      6.4925      5.7501      5.1510      4.6983      4.3865      4.2065      4.1522      4.2231    
  4.4243      4.7617      4.7587      5.1347      5.6255      6.2128      6.8711      7.5708      8.2811      8.9730    
  9.6200      10.193      10.656      10.960      11.058      10.912      10.519      9.9095      9.1489      8.3147    
  7.4810      6.7055      6.0255      5.4606      5.0166      4.6907      4.4771      4.3727      4.3804      4.5071    
  4.5594      4.7158      4.9872      5.3628      5.8270      6.3630      6.9542      7.5839      8.2333      8.8788    
  9.4880      10.016      10.409      10.613      10.590      10.330      9.8603      9.2348      8.5208      7.7834    
  7.0751      6.4318      5.8743      5.4113      5.0439      4.7709      4.5941      4.5206      4.6349      4.5772    
  4.6348      4.8033      5.0720      5.4296      5.8673      6.3792      6.9579      7.5909      8.2561      8.9189    
  9.5302      10.031      10.361      10.477      10.361      10.031      9.5301      8.9188      8.2561      7.5908    
  6.9577      6.3791      5.8673      5.4295      5.0720      4.8033      4.9873      4.7159      4.5594      4.5205    
  4.5941      4.7709      5.0439      5.4114      5.8744      6.4320      7.0752      7.7834      8.5208      9.2348    
  9.8603      10.330      10.589      10.613      10.409      10.016      9.4879      8.8787      8.2332      7.5838    
  6.9541      6.3629      5.8269      5.3628      5.6255      5.1348      4.7588      4.5071      4.3803      4.3727    
  4.4771      4.6907      5.0167      5.4607      6.0256      6.7055      7.4810      8.3147      9.1488      9.9094    
  10.518      10.912      11.057      10.960      10.656      10.193      9.6199      8.9729      8.2810      7.5708    
  6.8711      6.2127      6.5633      5.8443      5.2374      4.7617      4.4242      4.2231      4.1522      4.2065    
  4.3865      4.6984      5.1511      5.7502      6.4925      7.3585      8.3069      9.2705      10.163      10.896    
  11.399      11.640      11.627      11.395      10.987      10.437      9.7701      9.0113      8.1937      7.3613    
  7.8028      6.8573      6.0067      5.2899      4.7252      4.3160      4.0578      3.9441      3.9716      4.1426    
  4.4659      4.9526      5.6112      6.4397      7.4158      8.4889      9.5779      10.583      11.406      11.977    
  12.263      12.295      12.129      11.792      11.275      10.576      9.7301      8.7839      9.3031      8.1678    
  7.0772      6.1036      5.2897      4.6515      4.1884      3.8930      3.7581      3.7812      3.9664      4.3242    
  4.8685      5.6099      6.5449      7.6430      8.8378      10.030      11.107      11.949      12.467      12.695    
  12.737      12.666      12.462      12.040      11.336      10.390      10.948      9.7177      8.4335      7.2099    
  6.1297      5.2370      4.5446      4.0477      3.7359      3.6011      3.6412      3.8618      4.2756      4.8993    
  5.7440      6.7996      8.0203      9.3175      10.572      11.622      12.295      12.593      12.676      12.731    
  12.826      12.858      12.624      11.977      12.438      11.365      10.002      8.5843      7.2479      6.0833    
  5.1342      4.4096      3.9003      3.5930      3.4785      3.5553      3.8306      4.3203      5.0431      6.0070    
  7.1887      8.5190      9.8824      11.102      11.904      12.186      12.114      12.007      12.130      12.508    
  12.901      12.958      13.033      12.694      11.613      10.140      8.6121      7.1893      5.9668      4.9866    
  4.2533      3.7531      3.4701      3.3944      3.5254      3.8730      4.4564      5.2948      6.3873      7.6901    
  9.1036      10.465      11.436      11.741      11.434      10.895      10.619      10.916      11.716      12.597    
  12.033      12.893      12.753      11.683      10.126      8.5171      7.0384      5.7874      4.8028      4.0842    
  3.6135      3.3726      3.3517      3.5520      3.9872      4.6795      5.6449      6.8677      8.2764      9.7342    
  10.934      11.419      11.011      9.9837      8.9637      8.6052      9.2171      10.574      9.2951      11.356    
  12.618      12.650      11.585      9.9672      8.3079      6.8055      5.5563      4.5940      3.9120      3.4888    
  3.3049      3.3518      3.6339      4.1692      4.9816      6.0795      7.4264      8.9175      10.340      11.180    
  10.979      9.7236      7.9486      6.5268      6.2279      7.2943      5.4875      8.1395      10.733      12.300    
  12.426      11.338      9.6773      7.9999      6.5065      5.2887      4.3729      3.7467      3.3854      3.2701    
  3.3947      3.7682      4.4128      5.3513      6.5805      8.0382      9.5823      10.841      11.163      10.163    
  8.0418      5.6081      3.9441      3.8672      1.9418      4.1384      7.3455      10.306      12.012      12.119    
  10.965      9.2785      7.6143      6.1607      5.0010      4.1526      3.5971      3.3085      3.2697      3.4789    
  3.9501      4.7088      5.7740      7.1266      8.6769      10.225      11.203      10.924      9.1274      6.2522    
  3.3532      1.6551      5.0164      5.4944      7.3453      9.7661      11.743      12.552      12.054      10.658    
  8.9953      7.4166      6.0592      4.9865      4.2066      3.7001      3.4439      3.4245      3.6414      4.1082    
  4.8482      5.8780      7.1785      8.6668      10.175      11.255      11.319      10.147      8.1088      6.0748    
  5.1993      4.2562      4.9868      7.0719      9.5884      11.496      12.139      11.485      10.028      8.3995    
  6.8907      5.6251      4.6526      3.9718      3.5597      3.3946      3.4669      3.7814      4.3562      5.2157    
  6.3698      7.7841      9.3537      10.854      11.715      11.377      9.7472      7.3574      7.0721      4.9869    
  4.2563      5.1993      7.3573      9.7471      11.377      11.715      10.854      9.3536      7.7841      6.3699    
  5.2157      4.3562      3.7815      3.4670      3.3945      3.5596      3.9718      4.6526      5.6250      6.8906    
  8.3995      10.028      11.485      12.139      11.496      9.5885      9.7662      7.3454      5.4946      5.0166    
  6.0748      8.1087      10.147      11.319      11.255      10.175      8.6668      7.1785      5.8781      4.8482    