   2   2   0   0
  0.1529437E+02  0.3691622E-09  0.3691622E-09  0.3691622E-09  0.5000000E-15
  1.000000000000000E-004
  CAR 
 unknown system                          
     21.99198701     -6.24139702  301      9.24362959      1.00000000
     -6.241  0.0000E+00  0.0000E+00
     -6.147  0.0000E+00  0.0000E+00
     -6.053  0.0000E+00  0.0000E+00
     -5.959  0.0000E+00  0.0000E+00
     -5.865  0.0000E+00  0.0000E+00
     -5.771  0.0000E+00  0.0000E+00
     -5.677  0.0000E+00  0.0000E+00
     -5.583  0.0000E+00  0.0000E+00
     -5.489  0.0000E+00  0.0000E+00
     -5.394  0.1475E-16  0.1388E-17
     -5.300  0.3092E-14  0.2924E-15
     -5.206  0.3944E-12  0.3741E-13
     -5.112  0.3252E-10  0.3098E-11
     -5.018  0.1736E-08  0.1665E-09
     -4.924  0.6003E-07  0.5816E-08
     -4.830  0.1346E-05  0.1325E-06
     -4.736  0.1961E-04  0.1978E-05
     -4.642  0.1856E-03  0.1944E-04
     -4.547  0.1143E-02  0.1270E-03
     -4.453  0.4586E-02  0.5586E-03
     -4.359  0.1199E-01  0.1687E-02
     -4.265  0.2046E-01  0.3613E-02
     -4.171  0.2278E-01  0.5757E-02
     -4.077  0.1655E-01  0.7314E-02
     -3.983  0.7845E-02  0.8053E-02
     -3.889  0.2425E-02  0.8281E-02
     -3.795  0.4897E-03  0.8327E-02
     -3.700  0.7982E-04  0.8334E-02
     -3.606  0.1425E-03  0.8348E-02
     -3.512  0.7762E-03  0.8421E-02
     -3.418  0.2863E-02  0.8690E-02
     -3.324  0.6892E-02  0.9339E-02
     -3.230  0.1089E-01  0.1036E-01
     -3.136  0.1176E-01  0.1147E-01
     -3.042  0.1114E-01  0.1252E-01
     -2.948  0.1638E-01  0.1406E-01
     -2.853  0.3147E-01  0.1702E-01
     -2.759  0.4849E-01  0.2159E-01
     -2.665  0.5672E-01  0.2692E-01
     -2.571  0.5784E-01  0.3237E-01
     -2.477  0.5597E-01  0.3763E-01
     -2.383  0.4571E-01  0.4194E-01
     -2.289  0.2713E-01  0.4449E-01
     -2.195  0.1103E-01  0.4553E-01
     -2.101  0.4040E-02  0.4591E-01
     -2.006  0.6061E-02  0.4648E-01
     -1.912  0.1730E-01  0.4811E-01
     -1.818  0.3488E-01  0.5139E-01
     -1.724  0.4622E-01  0.5574E-01
     -1.630  0.4107E-01  0.5960E-01
     -1.536  0.2787E-01  0.6223E-01
     -1.442  0.2183E-01  0.6428E-01
     -1.348  0.2351E-01  0.6649E-01
     -1.253  0.2246E-01  0.6861E-01
     -1.159  0.1489E-01  0.7001E-01
     -1.065  0.6503E-02  0.7062E-01
     -0.971  0.1855E-02  0.7080E-01
     -0.877  0.3484E-03  0.7083E-01
     -0.783  0.9361E-04  0.7084E-01
     -0.689  0.4710E-03  0.7088E-01
     -0.595  0.2742E-02  0.7114E-01
     -0.501  0.1047E-01  0.7213E-01
     -0.406  0.2609E-01  0.7458E-01
     -0.312  0.4252E-01  0.7858E-01
     -0.218  0.4617E-01  0.8293E-01
     -0.124  0.3708E-01  0.8642E-01
     -0.030  0.3265E-01  0.8949E-01
      0.064  0.4331E-01  0.9357E-01
      0.158  0.6159E-01  0.9936E-01
      0.252  0.8038E-01  0.1069E+00
      0.346  0.9783E-01  0.1161E+00
      0.441  0.9999E-01  0.1255E+00
      0.535  0.7568E-01  0.1327E+00
      0.629  0.4298E-01  0.1367E+00
      0.723  0.2600E-01  0.1392E+00
      0.817  0.2458E-01  0.1415E+00
      0.911  0.2520E-01  0.1438E+00
      1.005  0.2505E-01  0.1462E+00
      1.099  0.3187E-01  0.1492E+00
      1.193  0.4369E-01  0.1533E+00
      1.288  0.4557E-01  0.1576E+00
      1.382  0.3207E-01  0.1606E+00
      1.476  0.1543E-01  0.1621E+00
      1.570  0.7631E-02  0.1628E+00
      1.664  0.1029E-01  0.1638E+00
      1.758  0.1824E-01  0.1655E+00
      1.852  0.2292E-01  0.1676E+00
      1.946  0.1911E-01  0.1694E+00
      2.040  0.1122E-01  0.1705E+00
      2.135  0.8150E-02  0.1713E+00
      2.229  0.1579E-01  0.1727E+00
      2.323  0.3319E-01  0.1759E+00
      2.417  0.4969E-01  0.1805E+00
      2.511  0.5376E-01  0.1856E+00
      2.605  0.4727E-01  0.1900E+00
      2.699  0.4062E-01  0.1939E+00
      2.793  0.4132E-01  0.1978E+00
      2.887  0.4954E-01  0.2024E+00
      2.982  0.5794E-01  0.2079E+00
      3.076  0.6599E-01  0.2141E+00
      3.170  0.8190E-01  0.2218E+00
      3.264  0.9606E-01  0.2308E+00
      3.358  0.8711E-01  0.2390E+00
      3.452  0.6091E-01  0.2448E+00
      3.546  0.4322E-01  0.2488E+00
      3.640  0.4109E-01  0.2527E+00
      3.734  0.4206E-01  0.2567E+00
      3.829  0.3873E-01  0.2603E+00
      3.923  0.3726E-01  0.2638E+00
      4.017  0.4350E-01  0.2679E+00
      4.111  0.4835E-01  0.2724E+00
      4.205  0.3958E-01  0.2762E+00
      4.299  0.2181E-01  0.2782E+00
      4.393  0.8248E-02  0.2790E+00
      4.487  0.3993E-02  0.2794E+00
      4.581  0.8328E-02  0.2802E+00
      4.676  0.2121E-01  0.2822E+00
      4.770  0.4058E-01  0.2860E+00
      4.864  0.5841E-01  0.2915E+00
      4.958  0.6525E-01  0.2976E+00
      5.052  0.6179E-01  0.3034E+00
      5.146  0.6035E-01  0.3091E+00
      5.240  0.6671E-01  0.3154E+00
      5.334  0.7196E-01  0.3222E+00
      5.428  0.6997E-01  0.3287E+00
      5.523  0.6459E-01  0.3348E+00
      5.617  0.5509E-01  0.3400E+00
      5.711  0.3827E-01  0.3436E+00
      5.805  0.2364E-01  0.3458E+00
      5.899  0.2695E-01  0.3484E+00
      5.993  0.5347E-01  0.3534E+00
      6.087  0.9050E-01  0.3619E+00
      6.181  0.1179E+00  0.3730E+00
      6.275  0.1284E+00  0.3851E+00
      6.370  0.1216E+00  0.3965E+00
      6.464  0.9286E-01  0.4053E+00
      6.558  0.5151E-01  0.4101E+00
      6.652  0.1949E-01  0.4120E+00
      6.746  0.4887E-02  0.4124E+00
      6.840  0.8051E-03  0.4125E+00
      6.934  0.1130E-03  0.4125E+00
      7.028  0.2947E-03  0.4125E+00
      7.122  0.2052E-02  0.4127E+00
      7.217  0.9639E-02  0.4136E+00
      7.311  0.3003E-01  0.4165E+00
      7.405  0.6225E-01  0.4223E+00
      7.499  0.8638E-01  0.4304E+00
      7.593  0.8089E-01  0.4381E+00
      7.687  0.5214E-01  0.4430E+00
      7.781  0.2611E-01  0.4454E+00
      7.875  0.1963E-01  0.4473E+00
      7.969  0.3251E-01  0.4503E+00
      8.064  0.5317E-01  0.4553E+00
      8.158  0.6904E-01  0.4618E+00
      8.252  0.7780E-01  0.4692E+00
      8.346  0.8208E-01  0.4769E+00
      8.440  0.7972E-01  0.4844E+00
      8.534  0.6982E-01  0.4909E+00
      8.628  0.6345E-01  0.4969E+00
      8.722  0.7444E-01  0.5039E+00
      8.816  0.9200E-01  0.5126E+00
      8.911  0.8739E-01  0.5208E+00
      9.005  0.5741E-01  0.5262E+00
      9.099  0.2932E-01  0.5290E+00
      9.193  0.2515E-01  0.5313E+00
      9.287  0.4636E-01  0.5357E+00
      9.381  0.7851E-01  0.5431E+00
      9.475  0.1006E+00  0.5526E+00
      9.569  0.1024E+00  0.5622E+00
      9.663  0.9112E-01  0.5708E+00
      9.758  0.7534E-01  0.5779E+00
      9.852  0.5485E-01  0.5830E+00
      9.946  0.3107E-01  0.5859E+00
     10.040  0.1246E-01  0.5871E+00
     10.134  0.3529E-02  0.5875E+00
     10.228  0.1802E-02  0.5876E+00
     10.322  0.5760E-02  0.5882E+00
     10.416  0.1763E-01  0.5898E+00
     10.510  0.3617E-01  0.5932E+00
     10.605  0.5121E-01  0.5980E+00
     10.699  0.5600E-01  0.6033E+00
     10.793  0.5758E-01  0.6087E+00
     10.887  0.6278E-01  0.6146E+00
     10.981  0.7540E-01  0.6217E+00
     11.075  0.1066E+00  0.6318E+00
     11.169  0.1511E+00  0.6460E+00
     11.263  0.1713E+00  0.6621E+00
     11.357  0.1416E+00  0.6754E+00
     11.452  0.8579E-01  0.6835E+00
     11.546  0.4597E-01  0.6878E+00
     11.640  0.3846E-01  0.6915E+00
     11.734  0.4810E-01  0.6960E+00
     11.828  0.5194E-01  0.7009E+00
     11.922  0.4459E-01  0.7051E+00
     12.016  0.3726E-01  0.7086E+00
     12.110  0.3993E-01  0.7123E+00
     12.204  0.5380E-01  0.7174E+00
     12.299  0.7015E-01  0.7240E+00
     12.393  0.7509E-01  0.7311E+00
     12.487  0.6594E-01  0.7373E+00
     12.581  0.5671E-01  0.7426E+00
     12.675  0.5928E-01  0.7482E+00
     12.769  0.6575E-01  0.7544E+00
     12.863  0.6016E-01  0.7600E+00
     12.957  0.4101E-01  0.7639E+00
     13.051  0.2026E-01  0.7658E+00
     13.146  0.7111E-02  0.7665E+00
     13.240  0.1737E-02  0.7666E+00
     13.334  0.3330E-03  0.7667E+00
     13.428  0.4892E-03  0.7667E+00
     13.522  0.3040E-02  0.7670E+00
     13.616  0.1347E-01  0.7683E+00
     13.710  0.4030E-01  0.7721E+00
     13.804  0.8261E-01  0.7798E+00
     13.898  0.1182E+00  0.7910E+00
     13.993  0.1209E+00  0.8023E+00
     14.087  0.9373E-01  0.8112E+00
     14.181  0.6982E-01  0.8177E+00
     14.275  0.7835E-01  0.8251E+00
     14.369  0.1123E+00  0.8357E+00
     14.463  0.1342E+00  0.8483E+00
     14.557  0.1225E+00  0.8598E+00
     14.651  0.9970E-01  0.8692E+00
     14.745  0.9592E-01  0.8782E+00
     14.840  0.1052E+00  0.8881E+00
     14.934  0.1046E+00  0.8980E+00
     15.028  0.9084E-01  0.9065E+00
     15.122  0.7264E-01  0.9134E+00
     15.216  0.5535E-01  0.9186E+00
     15.310  0.4625E-01  0.9229E+00
     15.404  0.4813E-01  0.9275E+00
     15.498  0.4800E-01  0.9320E+00
     15.592  0.3573E-01  0.9353E+00
     15.687  0.2062E-01  0.9373E+00
     15.781  0.1565E-01  0.9388E+00
     15.875  0.2012E-01  0.9407E+00
     15.969  0.2323E-01  0.9428E+00
     16.063  0.1833E-01  0.9446E+00
     16.157  0.9636E-02  0.9455E+00
     16.251  0.4259E-02  0.9459E+00
     16.345  0.5345E-02  0.9464E+00
     16.439  0.1408E-01  0.9477E+00
     16.534  0.3020E-01  0.9505E+00
     16.628  0.4866E-01  0.9551E+00
     16.722  0.5936E-01  0.9607E+00
     16.816  0.5370E-01  0.9658E+00
     16.910  0.3537E-01  0.9691E+00
     17.004  0.1894E-01  0.9709E+00
     17.098  0.1282E-01  0.9721E+00
     17.192  0.1255E-01  0.9733E+00
     17.286  0.1223E-01  0.9744E+00
     17.381  0.1552E-01  0.9759E+00
     17.475  0.3272E-01  0.9790E+00
     17.569  0.6428E-01  0.9850E+00
     17.663  0.8873E-01  0.9934E+00
     17.757  0.8296E-01  0.1001E+01
     17.851  0.5525E-01  0.1006E+01
     17.945  0.3443E-01  0.1010E+01
     18.039  0.3325E-01  0.1013E+01
     18.133  0.4403E-01  0.1017E+01
     18.228  0.5848E-01  0.1022E+01
     18.322  0.7261E-01  0.1029E+01
     18.416  0.7846E-01  0.1037E+01
     18.510  0.6779E-01  0.1043E+01
     18.604  0.4429E-01  0.1047E+01
     18.698  0.2116E-01  0.1049E+01
     18.792  0.7270E-02  0.1050E+01
     18.886  0.2246E-02  0.1050E+01
     18.980  0.2904E-02  0.1050E+01
     19.075  0.8325E-02  0.1051E+01
     19.169  0.1707E-01  0.1053E+01
     19.263  0.2290E-01  0.1055E+01
     19.357  0.2006E-01  0.1057E+01
     19.451  0.1147E-01  0.1058E+01
     19.545  0.4340E-02  0.1058E+01
     19.639  0.1528E-02  0.1058E+01
     19.733  0.2590E-02  0.1059E+01
     19.827  0.7862E-02  0.1059E+01
     19.922  0.1655E-01  0.1061E+01
     20.016  0.2278E-01  0.1063E+01
     20.110  0.2046E-01  0.1065E+01
     20.204  0.1199E-01  0.1066E+01
     20.298  0.4586E-02  0.1067E+01
     20.392  0.1143E-02  0.1067E+01
     20.486  0.1856E-03  0.1067E+01
     20.580  0.1961E-04  0.1067E+01
     20.674  0.1346E-05  0.1067E+01
     20.769  0.6003E-07  0.1067E+01
     20.863  0.1736E-08  0.1067E+01
     20.957  0.3252E-10  0.1067E+01
     21.051  0.3944E-12  0.1067E+01
     21.145  0.3087E-14  0.1067E+01
     21.239  0.1966E-16  0.1067E+01
     21.333  0.0000E+00  0.1067E+01
     21.427  0.0000E+00  0.1067E+01
     21.521  0.0000E+00  0.1067E+01
     21.616  0.0000E+00  0.1067E+01
     21.710  0.0000E+00  0.1067E+01
     21.804  0.0000E+00  0.1067E+01
     21.898  0.0000E+00  0.1067E+01
     21.992  0.0000E+00  0.1067E+01
