    2    2   15    1
  0.1529437E+02  0.3691622E-09  0.3691622E-09  0.3691622E-09  0.5000000E-15
  1.000000000000000E-004
  CAR 
 unknown system                          
      8     11      8
 
  0.1250000E+00  0.1250000E+00  0.1250000E+00  0.1250000E+00
    1       -2.908138   1.000000
    2        3.505674   1.000000
    3        7.469258   1.000000
    4        8.447300   0.628072
    5       10.136299   0.000000
    6       11.494669   0.000000
    7       14.614568   0.000000
    8       14.840337   0.000000
 
  0.3750000E+00  0.1250000E+00  0.1250000E+00  0.1250000E+00
    1        0.583297   1.000000
    2        1.949339   1.000000
    3        4.218614   1.000000
    4        5.464266   1.000000
    5       10.144717   0.000000
    6       12.291280   0.000000
    7       13.956465   0.000000
    8       14.525818   0.000000
 
 -0.1250000E+00  0.1250000E+00  0.1250000E+00  0.6250000E-01
    1       -4.326305   1.000000
    2        5.010306   1.000000
    3        5.672463   1.000000
    4       11.282544   0.000000
    5       12.923498   0.000000
    6       13.099219   0.000000
    7       14.723039   0.000000
    8       16.094082   0.000000
 
  0.3750000E+00  0.3750000E+00  0.1250000E+00  0.6250000E-01
    1       -0.444071   1.000000
    2       -0.444071   1.000000
    3        7.431519   1.000000
    4        7.431533   1.000000
    5       11.919198   0.000000
    6       11.919205   0.000000
    7       13.788677   0.000000
    8       13.788706   0.000000
 
 -0.3750000E+00  0.3750000E+00  0.1250000E+00  0.1250000E+00
    1       -2.653645   1.000000
    2        0.629723   1.000000
    3        6.894044   1.000000
    4        9.712798   0.000000
    5       12.654933   0.000000
    6       13.510010   0.000000
    7       14.570112   0.000000
    8       16.446712   0.000000
 
 -0.1250000E+00  0.3750000E+00  0.1250000E+00  0.1250000E+00
    1       -2.084974   1.000000
    2        3.718784   1.000000
    3        4.784594   1.000000
    4        6.513934   1.000000
    5       10.343802   0.000000
    6       12.842739   0.000000
    7       13.225295   0.000000
    8       16.198905   0.000000
 
 -0.3750000E+00 -0.3750000E+00  0.1250000E+00  0.1250000E+00
    1        0.265036   1.000000
    2        0.411387   1.000000
    3        5.052003   1.000000
    4        6.767234   1.000000
    5        7.476544   1.000000
    6       12.051854   0.000000
    7       17.380621   0.000000
    8       17.614999   0.000000
 
 -0.1250000E+00 -0.3750000E+00  0.1250000E+00  0.1250000E+00
    1       -0.471331   1.000000
    2        3.119807   1.000000
    3        6.107624   1.000000
    4        6.113690   1.000000
    5        8.332918   0.871928
    6       10.700567   0.000000
    7       10.848893   0.000000
    8       15.679124   0.000000
 
 -0.1250000E+00 -0.1250000E+00  0.1250000E+00  0.3125000E-01
    1       -3.739970   1.000000
    2        7.485744   1.000000
    3        7.485770   1.000000
    4        9.699915   0.000000
    5       10.181050   0.000000
    6       10.505064   0.000000
    7       12.032029   0.000000
    8       12.738336   0.000000
 
 -0.3750000E+00  0.3750000E+00  0.3750000E+00  0.6250000E-01
    1       -1.012615   1.000000
    2        1.789051   1.000000
    3        2.778220   1.000000
    4        5.478448   1.000000
    5       11.816108   0.000000
    6       11.905200   0.000000
    7       20.241235   0.000000
    8       20.350032   0.000000
 
 -0.3750000E+00 -0.3750000E+00  0.3750000E+00  0.3125000E-01
    1        1.807404   1.000000
    2        2.471244   1.000000
    3        3.323706   1.000000
    4        3.323709   1.000000
    5        5.348185   1.000000
    6       16.113831   0.000000
    7       16.659888   0.000000
    8       16.659960   0.000000
