    2    2   15    1
  0.1529437E+02  0.3691622E-09  0.3691622E-09  0.3691622E-09  0.5000000E-15
  1.000000000000000E-004
  CAR 
 unknown system                          
      8     11      8
 
  0.1250000E+00  0.1250000E+00  0.1250000E+00  0.1250000E+00
    1       -2.487119   1.000000
    2        3.223875   1.000000
    3        8.061813   1.000000
    4        9.552330   0.014524
    5       11.191370   0.000000
    6       11.311523   0.000000
    7       14.340039   0.000000
    8       15.089135   0.000000
 
  0.3750000E+00  0.1250000E+00  0.1250000E+00  0.1250000E+00
    1        2.399170   1.000000
    2        2.922985   1.000000
    3        5.304659   1.000000
    4        5.556835   1.000000
    5       10.569988   0.000000
    6       12.278629   0.000000
    7       13.890955   0.000000
    8       14.452644   0.000000
 
 -0.1250000E+00  0.1250000E+00  0.1250000E+00  0.6250000E-01
    1       -4.241397   1.000000
    2        3.751808   1.000000
    3        5.167260   1.000000
    4        9.344241   0.238409
    5       12.396927   0.000000
    6       12.856783   0.000000
    7       18.061959   0.000000
    8       19.233549   0.000000
 
  0.3750000E+00  0.3750000E+00  0.1250000E+00  0.6250000E-01
    1       -0.299562   1.000000
    2       -0.299561   1.000000
    3        9.410636   0.118818
    4        9.410659   0.118786
    5       11.141921   0.000000
    6       11.141959   0.000000
    7       12.720086   0.000000
    8       12.720138   0.000000
 
 -0.3750000E+00  0.3750000E+00  0.1250000E+00  0.1250000E+00
    1       -2.765708   1.000000
    2        0.119817   1.000000
    3        6.067821   1.000000
    4        8.835408   0.998053
    5       11.737000   0.000000
    6       14.450425   0.000000
    7       17.613225   0.000000
    8       18.376516   0.000000
 
 -0.1250000E+00  0.3750000E+00  0.1250000E+00  0.1250000E+00
    1       -1.757200   1.000000
    2        3.266726   1.000000
    3        4.919938   1.000000
    4        8.793370   0.999273
    5        9.756404   0.000144
    6       13.828630   0.000000
    7       14.880078   0.000000
    8       15.436002   0.000000
 
 -0.3750000E+00 -0.3750000E+00  0.1250000E+00  0.1250000E+00
    1        0.380405   1.000000
    2        0.394252   1.000000
    3        6.348897   1.000000
    4        6.349946   1.000000
    5        8.280124   1.000000
    6       13.995436   0.000000
    7       16.736403   0.000000
    8       17.676049   0.000000
 
 -0.1250000E+00 -0.3750000E+00  0.1250000E+00  0.1250000E+00
    1        1.210803   1.000000
    2        4.075072   1.000000
    3        6.142760   1.000000
    4        7.488264   1.000000
    5        8.462467   1.000000
    6       10.858342   0.000000
    7       11.222716   0.000000
    8       14.781810   0.000000
 
 -0.1250000E+00 -0.1250000E+00  0.1250000E+00  0.3125000E-01
    1       -3.224598   1.000000
    2        7.428821   1.000000
    3        7.455324   1.000000
    4        7.455346   1.000000
    5       11.941268   0.000000
    6       12.082992   0.000000
    7       12.469607   0.000000
    8       14.697757   0.000000
 
 -0.3750000E+00  0.3750000E+00  0.3750000E+00  0.6250000E-01
    1       -1.341634   1.000000
    2        0.825442   1.000000
    3        2.631363   1.000000
    4        4.760057   1.000000
    5       15.917785   0.000000
    6       16.564298   0.000000
    7       18.499850   0.000000
    8       19.991987   0.000000
 
 -0.3750000E+00 -0.3750000E+00  0.3750000E+00  0.3125000E-01
    1        1.793153   1.000000
    2        1.827541   1.000000
    3        3.597916   1.000000
    4        3.597918   1.000000
    5        7.591805   1.000000
    6       17.164280   0.000000
    7       18.232065   0.000000
    8       18.232155   0.000000
