       N       E                     dE             d eps       ncg     rms          rms(c)
DAV:   1    -0.103685386129E+02   -0.10369E+02   -0.31073E+01   248   0.311E+01    0.314E+00
DAV:   2    -0.101174739575E+02    0.25106E+00   -0.54105E-01   216   0.580E+00    0.179E+00
DAV:   3    -0.997715741770E+01    0.14032E+00   -0.39512E-01   232   0.345E+00    0.201E-01
DAV:   4    -0.997760706648E+01   -0.44965E-03   -0.15588E-02   192   0.990E-01    0.124E-01
DAV:   5    -0.997764299186E+01   -0.35925E-04   -0.30727E-04   176   0.124E-01
   1 F= -.99776430E+01 E0= -.99705791E+01  d E =-.997764E+01
