unknown system                          
   1.00000000000000     
    -2.490143    2.490143    1.245639
     2.490143   -2.490143    1.245639
     2.490143    2.490143   -1.245639
   Si
     2
Direct
  0.250000  0.750000  0.500000
  0.000000  0.000000  0.000000
 
   36   36   36
 -.52957135688E+01 -.43413665555E+01 -.17254616655E+01 0.18976439442E+01 0.56862748348E+01
 0.88672047622E+01 0.10931137016E+02 0.11717239710E+02 0.11387999391E+02 0.10325851053E+02
 0.89866330190E+01 0.76629110487E+01 0.64646193988E+01 0.54547222058E+01 0.46573727887E+01
 0.40686206197E+01 0.36703107258E+01 0.34417252393E+01 0.33674142594E+01 0.34417254441E+01
 0.36703197799E+01 0.40686355251E+01 0.46573805147E+01 0.54547220346E+01 0.64646225644E+01
 0.76629183351E+01 0.89866340538E+01 0.10325845520E+02 0.11387997538E+02 0.11717242255E+02
 0.10931135691E+02 0.88672014676E+01 0.56862784193E+01 0.18976497342E+01 -.17254661769E+01
 -.43413770445E+01 -.43413770445E+01 -.48588529425E+01 -.35140793508E+01 -.65572210683E+00
 0.30075355237E+01 0.66411944101E+01 0.95303658091E+01 0.11249653624E+02 0.11720323191E+02
 0.11164898190E+02 0.99930024347E+01 0.86425567688E+01 0.73423723513E+01 0.61869092098E+01
 0.52291043723E+01 0.44850890948E+01 0.39461997737E+01 0.35926396589E+01 0.34042245398E+01
 0.33673631084E+01 0.34788390251E+01 0.37465828313E+01 0.41874602130E+01 0.48221399736E+01
 0.56665548399E+01 0.67196094739E+01 0.79495233081E+01 0.92848792673E+01 0.10597211523E+02
 0.11544902288E+02 0.11677059181E+02 0.10650672837E+02 0.83676134451E+01 0.50633770926E+01
 0.13097254670E+01 -.20954106780E+01 -.17254661769E+01 -.35140873616E+01 -.35944815095E+01
 -.19472551532E+01 0.99876239400E+00 0.45162356068E+01 0.78152539831E+01 0.10267690093E+02
 0.11546488091E+02 0.11655964878E+02 0.10869520714E+02 0.96088055315E+01 0.82637153684E+01
 0.69990026160E+01 0.58963663673E+01 0.49977313481E+01 0.43113108282E+01 0.38243595682E+01
 0.35161403800E+01 0.33675670240E+01 0.33672287144E+01 0.35143482798E+01 0.38188294717E+01
 0.42984825117E+01 0.49733890182E+01 0.58567952659E+01 0.69425333237E+01 0.81920909722E+01
 0.95276262848E+01 0.10801914838E+02 0.11645727515E+02 0.11629916332E+02 0.10459407945E+02
 0.80995308859E+01 0.48470651988E+01 0.13097254670E+01 0.18976497342E+01 -.65572473350E+00
 -.19472590466E+01 -.16352598054E+01 0.19504032621E+00 0.30632067088E+01 0.62600573871E+01
 0.90730813825E+01 0.10981555589E+02 0.11763220694E+02 0.11500086458E+02 0.10503196349E+02
 0.91878614130E+01 0.78621768826E+01 0.66443669874E+01 0.56029013005E+01 0.47684063769E+01
 0.41417744877E+01 0.37070377314E+01 0.34432640220E+01 0.33329604720E+01 0.33670758010E+01
 0.35471218353E+01 0.38845842998E+01 0.43977184260E+01 0.51055313837E+01 0.60183086561E+01
 0.71251210305E+01 0.83819968382E+01 0.97069499331E+01 0.10938220840E+02 0.11701001338E+02
 0.11599751416E+02 0.10391634898E+02 0.80995308859E+01 0.50633770926E+01 0.56862784193E+01
 0.30075384277E+01 0.99876214002E+00 0.19504086621E+00 0.81712530571E+00 0.26942451294E+01
 0.53266879945E+01 0.80573006327E+01 0.10275996214E+02 0.11580814400E+02 0.11852753722E+02
 0.11240644749E+02 0.10076985290E+02 0.87433860176E+01 0.74505984726E+01 0.62899643581E+01
 0.53159503919E+01 0.45483186276E+01 0.39816493554E+01 0.35977486959E+01 0.33762101094E+01
 0.33015103197E+01 0.33669779293E+01 0.35761368012E+01 0.39416100258E+01 0.44816106704E+01
 0.52136658844E+01 0.61450176174E+01 0.72605818174E+01 0.85124770194E+01 0.98169382640E+01
 0.11006167365E+02 0.11718480142E+02 0.11599751416E+02 0.10459407945E+02 0.83676134451E+01
 0.88672014676E+01 0.66411939516E+01 0.45162353644E+01 0.30632085270E+01 0.26942491447E+01
 0.35190129672E+01 0.53068560586E+01 0.75708600080E+01 0.97332213941E+01 0.11301533552E+02
 0.11994474859E+02 0.11787649690E+02 0.10881556953E+02 0.96122780008E+01 0.82886062378E+01
 0.70417953368E+01 0.59467558053E+01 0.50440894873E+01 0.43437695890E+01 0.38353570895E+01
 0.34994649799E+01 0.33168404090E+01 0.32741531465E+01 0.33669828151E+01 0.36004994912E+01
 0.39879980212E+01 0.45471913568E+01 0.52938173119E+01 0.62321839464E+01 0.73439016901E+01
 0.85788940156E+01 0.98539885568E+01 0.11006167365E+02 0.11701001338E+02 0.11629916332E+02
 0.10650672837E+02 0.10931135691E+02 0.95303635413E+01 0.78152501528E+01 0.62600546332E+01
 0.53266910133E+01 0.53068618240E+01 0.62177089890E+01 0.77971787068E+01 0.95990665165E+01
 0.11143234008E+02 0.12059993887E+02 0.12182037781E+02 0.11565278979E+02 0.10443901385E+02
 0.91331860345E+01 0.78375880196E+01 0.66483029112E+01 0.56247895505E+01 0.47947861231E+01
 0.41600329213E+01 0.37064963402E+01 0.34145678147E+01 0.32666317192E+01 0.32516121728E+01
 0.33670899080E+01 0.36194624065E+01 0.40222292218E+01 0.45921861644E+01 0.53430817197E+01
 0.62765814407E+01 0.73720178622E+01 0.85788940156E+01 0.98169382640E+01 0.10938220840E+02
 0.11645727515E+02 0.11677059181E+02 0.11717242255E+02 0.11249656237E+02 0.10267689323E+02
 0.90730758774E+01 0.80572965816E+01 0.75708631934E+01 0.77971844252E+01 0.86848206295E+01
 0.99675610145E+01 0.11260757181E+02 0.12190397818E+02 0.12505297288E+02 0.12138768858E+02
 0.11208798778E+02 0.99639552019E+01 0.86565651297E+01 0.74047510136E+01 0.62819470843E+01
 0.53329382857E+01 0.45742903356E+01 0.40013368914E+01 0.35978595918E+01 0.33448604891E+01
 0.32266724100E+01 0.32343871950E+01 0.33672506371E+01 0.36324415054E+01 0.40432075908E+01
 0.46150663756E+01 0.53596993549E+01 0.62765814407E+01 0.73439016901E+01 0.85124770194E+01
 0.97069499331E+01 0.10801914838E+02 0.11544902288E+02 0.11387997538E+02 0.11720325998E+02
 0.11546493460E+02 0.10981556525E+02 0.10275990983E+02 0.97332173730E+01 0.95990690630E+01
 0.99675653876E+01 0.10744048784E+02 0.11680853388E+02 0.12467237367E+02 0.12834601341E+02
 0.12638643755E+02 0.11895143220E+02 0.10763727802E+02 0.94800316605E+01 0.81993503373E+01
 0.70042285186E+01 0.59534482537E+01 0.50787456894E+01 0.43876378493E+01 0.38709360376E+01
 0.35115137080E+01 0.32916282738E+01 0.31976992547E+01 0.32227804649E+01 0.33673910838E+01
 0.36390340331E+01 0.40502736621E+01 0.46150663756E+01 0.53430817197E+01 0.62321839464E+01
 0.72605818174E+01 0.83819968382E+01 0.95276262848E+01 0.10597211523E+02 0.10325845520E+02
 0.11164893602E+02 0.11655967056E+02 0.11763227096E+02 0.11580816816E+02 0.11301530056E+02
 0.11143231038E+02 0.11260758719E+02 0.11680855867E+02 0.12288897391E+02 0.12871885401E+02
 0.13196953782E+02 0.13092702483E+02 0.12504861653E+02 0.11510722977E+02 0.10289841974E+02
 0.90151969908E+01 0.77786802012E+01 0.66491618829E+01 0.56720945331E+01 0.48683670963E+01
 0.42387264857E+01 0.37712297497E+01 0.34489103158E+01 0.32557236102E+01 0.31801615788E+01
 0.32169468184E+01 0.33674464230E+01 0.36390340331E+01 0.40432075908E+01 0.45921861644E+01
 0.52938173119E+01 0.61450176174E+01 0.71251210305E+01 0.81920909722E+01 0.92848792673E+01
 0.89866340538E+01 0.99929967616E+01 0.10869514825E+02 0.11500087386E+02 0.11852759476E+02
 0.11994478119E+02 0.12059992703E+02 0.12190396385E+02 0.12467237938E+02 0.12871886107E+02
 0.13288406152E+02 0.13547429910E+02 0.13490749660E+02 0.13030519818E+02 0.12182506073E+02
 0.11063635591E+02 0.98330641044E+01 0.85903313197E+01 0.74106963682E+01 0.63510556376E+01
 0.54455179522E+01 0.47065835275E+01 0.41304264250E+01 0.37038892085E+01 0.34109959674E+01
 0.32376542142E+01 0.31742921036E+01 0.32169468184E+01 0.33673910838E+01 0.36324415054E+01
 0.40222292218E+01 0.45471913568E+01 0.52136658844E+01 0.60183086561E+01 0.69425333237E+01
 0.79495233081E+01 0.76629183351E+01 0.86425598394E+01 0.96088014048E+01 0.10503190750E+02
 0.11240644308E+02 0.11787653623E+02 0.12182041060E+02 0.12505298154E+02 0.12834601388E+02
 0.13196953665E+02 0.13547429362E+02 0.13781675658E+02 0.13776307893E+02 0.13439079833E+02
 0.12748653902E+02 0.11769615489E+02 0.10627093090E+02 0.94194758777E+01 0.82249953998E+01
 0.71094726440E+01 0.61193059406E+01 0.52795899529E+01 0.45968650544E+01 0.40646926494E+01
 0.36699656195E+01 0.33983010400E+01 0.32376542142E+01 0.31801615788E+01 0.32227804649E+01
 0.33672506371E+01 0.36194624065E+01 0.39879980212E+01 0.44816106704E+01 0.51055313837E+01
 0.58567952659E+01 0.67196094739E+01 0.64646225644E+01 0.73423791370E+01 0.82637197634E+01
 0.91878598188E+01 0.10076981268E+02 0.10881555495E+02 0.11565280651E+02 0.12138771456E+02
 0.12638645909E+02 0.13092703569E+02 0.13490749177E+02 0.13776306725E+02 0.13863685629E+02
 0.13672442822E+02 0.13163919728E+02 0.12364705490E+02 0.11361014829E+02 0.10237727670E+02
 0.90721153642E+01 0.79359146547E+01 0.68862656950E+01 0.59609537547E+01 0.51784229133E+01
 0.45414564526E+01 0.40426578457E+01 0.36699656195E+01 0.34109959674E+01 0.32557236102E+01
 0.31976992547E+01 0.32343871950E+01 0.33670899080E+01 0.36004994912E+01 0.39416100258E+01
 0.43977184260E+01 0.49733890182E+01 0.56665548399E+01 0.54547220346E+01 0.61869100530E+01
 0.69990073021E+01 0.78621815151E+01 0.87433870211E+01 0.96122762133E+01 0.10443899496E+02
 0.11208798429E+02 0.11895144796E+02 0.12504864233E+02 0.13030521330E+02 0.13439079226E+02
 0.13672441593E+02 0.13665566996E+02 0.13373996854E+02 0.12798336037E+02 0.11987944654E+02
 0.11005341024E+02 0.99215625340E+01 0.88100294910E+01 0.77359962388E+01 0.67491433834E+01
 0.58806343413E+01 0.51444352096E+01 0.45414564526E+01 0.40646926494E+01 0.37038892085E+01
 0.34489103158E+01 0.32916282738E+01 0.32266724100E+01 0.32516121728E+01 0.33669828151E+01
 0.35761368012E+01 0.38845842998E+01 0.42984825117E+01 0.48221399736E+01 0.46573805147E+01
 0.52291038607E+01 0.58963648797E+01 0.66443687080E+01 0.74506022395E+01 0.82886091445E+01
 0.91331864103E+01 0.99639534165E+01 0.10763726121E+02 0.11510723593E+02 0.12182508384E+02
 0.12748655244E+02 0.13163919142E+02 0.13373995979E+02 0.13332515818E+02 0.13021396307E+02
 0.12455344624E+02 0.11672273550E+02 0.10730490531E+02 0.96991332509E+01 0.86471706506E+01
 0.76338857852E+01 0.67029066760E+01 0.58806343413E+01 0.51784229133E+01 0.45968650544E+01
 0.41304264250E+01 0.37712297497E+01 0.35115137080E+01 0.33448604891E+01 0.32666317192E+01
 0.32741531465E+01 0.33669779293E+01 0.35471218353E+01 0.38188294717E+01 0.41874602130E+01
 0.40686355251E+01 0.44850960369E+01 0.49977307434E+01 0.56028980874E+01 0.62899630901E+01
 0.70417974976E+01 0.78375917703E+01 0.86565670135E+01 0.94800302755E+01 0.10289839797E+02
 0.11063635581E+02 0.11769617080E+02 0.12364706205E+02 0.12798335558E+02 0.13021396042E+02
 0.12997899712E+02 0.12714289392E+02 0.12183972403E+02 0.11445769311E+02 0.10557169036E+02
 0.95844101659E+01 0.85919512680E+01 0.76338857852E+01 0.67491433834E+01 0.59609537547E+01
 0.52795899529E+01 0.47065835275E+01 0.42387264857E+01 0.38709360376E+01 0.35978595918E+01
 0.34145678147E+01 0.33168404090E+01 0.33015103197E+01 0.33670758010E+01 0.35143482798E+01
 0.37465828313E+01 0.36703197799E+01 0.39462081196E+01 0.43113153193E+01 0.47684057186E+01
 0.53159462843E+01 0.59467522335E+01 0.66483033110E+01 0.74047546009E+01 0.81993527908E+01
 0.90151960481E+01 0.98330621593E+01 0.10627092840E+02 0.11361015459E+02 0.11987944481E+02
 0.12455344307E+02 0.12714289826E+02 0.12730092679E+02 0.12490729911E+02 0.12010446349E+02
 0.11327659802E+02 0.10497988642E+02 0.95844101659E+01 0.86471706506E+01 0.77359962388E+01
 0.68862656950E+01 0.61193059406E+01 0.54455179522E+01 0.48683670963E+01 0.43876378493E+01
 0.40013368914E+01 0.37064963402E+01 0.34994649799E+01 0.33762101094E+01 0.33329604720E+01
 0.33672287144E+01 0.34788390251E+01 0.34417254441E+01 0.35926383007E+01 0.38243594569E+01
 0.41417753287E+01 0.45483176955E+01 0.50440852343E+01 0.56247847876E+01 0.62819461324E+01
 0.70042312582E+01 0.77786823340E+01 0.85903307082E+01 0.94194746405E+01 0.10237727448E+02
 0.11005340617E+02 0.11672272447E+02 0.12183972269E+02 0.12490730956E+02 0.12557820089E+02
 0.12373247419E+02 0.11950810091E+02 0.11327659802E+02 0.10557169036E+02 0.96991332509E+01
 0.88100294910E+01 0.79359146547E+01 0.71094726440E+01 0.63510556376E+01 0.56720945331E+01
 0.50787456894E+01 0.45742903356E+01 0.41600329213E+01 0.38353570895E+01 0.35977486959E+01
 0.34432640220E+01 0.33675670240E+01 0.33673631084E+01 0.33674142594E+01 0.34042165800E+01
 0.35161291219E+01 0.37070294019E+01 0.39816462677E+01 0.43437681326E+01 0.47947822985E+01
 0.53329335542E+01 0.59534466920E+01 0.66491634875E+01 0.74106975788E+01 0.82249949817E+01
 0.90721150180E+01 0.99215624411E+01 0.10730489177E+02 0.11445767445E+02 0.12010446364E+02
 0.12373248820E+02 0.12498452035E+02 0.12373247419E+02 0.12010446349E+02 0.11445769311E+02
 0.10730490531E+02 0.99215625340E+01 0.90721153642E+01 0.82249953998E+01 0.74106963682E+01
 0.66491618829E+01 0.59534482537E+01 0.53329382857E+01 0.47947861231E+01 0.43437695890E+01
 0.39816493554E+01 0.37070377314E+01 0.35161403800E+01 0.34042245398E+01 0.34417252393E+01
 0.33673569583E+01 0.33675527819E+01 0.34432457489E+01 0.35977345347E+01 0.38353510055E+01
 0.41600310103E+01 0.45742874048E+01 0.50787420420E+01 0.56720931228E+01 0.63510561408E+01
 0.71094727106E+01 0.79359143370E+01 0.88100299633E+01 0.96991332707E+01 0.10557167009E+02
 0.11327657506E+02 0.11950810163E+02 0.12373248820E+02 0.12557820089E+02 0.12490729911E+02
 0.12183972403E+02 0.11672273550E+02 0.11005341024E+02 0.10237727670E+02 0.94194758777E+01
 0.85903313197E+01 0.77786802012E+01 0.70042285186E+01 0.62819470843E+01 0.56247895505E+01
 0.50440894873E+01 0.45483186276E+01 0.41417744877E+01 0.38243595682E+01 0.35926396589E+01
 0.36703107258E+01 0.34788305778E+01 0.33672176775E+01 0.33329431731E+01 0.33761893712E+01
 0.34994489742E+01 0.37064893065E+01 0.40013351062E+01 0.43876362340E+01 0.48683652131E+01
 0.54455172148E+01 0.61193055627E+01 0.68862647320E+01 0.77359959763E+01 0.86471716848E+01
 0.95844102413E+01 0.10497986369E+02 0.11327657506E+02 0.12010446364E+02 0.12490730956E+02
 0.12730092679E+02 0.12714289392E+02 0.12455344624E+02 0.11987944654E+02 0.11361014829E+02
 0.10627093090E+02 0.98330641044E+01 0.90151969908E+01 0.81993503373E+01 0.74047510136E+01
 0.66483029112E+01 0.59467558053E+01 0.53159503919E+01 0.47684063769E+01 0.43113108282E+01
 0.39461997737E+01 0.40686206197E+01 0.37465654500E+01 0.35143335709E+01 0.33670623778E+01
 0.33014939487E+01 0.33168223601E+01 0.34145545119E+01 0.35978541868E+01 0.38709353039E+01
 0.42387265009E+01 0.47065836028E+01 0.52795900501E+01 0.59609527871E+01 0.67491417290E+01
 0.76338855509E+01 0.85919525008E+01 0.95844102413E+01 0.10557167009E+02 0.11445767445E+02
 0.12183972269E+02 0.12714289826E+02 0.12997899712E+02 0.13021396307E+02 0.12798336037E+02
 0.12364705490E+02 0.11769615489E+02 0.11063635591E+02 0.10289841974E+02 0.94800316605E+01
 0.86565651297E+01 0.78375880196E+01 0.70417953368E+01 0.62899643581E+01 0.56029013005E+01
 0.49977313481E+01 0.44850890948E+01 0.46573727887E+01 0.41874422819E+01 0.38188080844E+01
 0.35471047268E+01 0.33669655885E+01 0.32741417025E+01 0.32666208774E+01 0.33448536962E+01
 0.35115121148E+01 0.37712308615E+01 0.41304281043E+01 0.45968667850E+01 0.51784236654E+01
 0.58806330832E+01 0.67029047806E+01 0.76338855509E+01 0.86471716848E+01 0.96991332707E+01
 0.10730489177E+02 0.11672272447E+02 0.12455344307E+02 0.13021396042E+02 0.13332515818E+02
 0.13373996854E+02 0.13163919728E+02 0.12748653902E+02 0.12182506073E+02 0.11510722977E+02
 0.10763727802E+02 0.99639552019E+01 0.91331860345E+01 0.82886062378E+01 0.74505984726E+01
 0.66443669874E+01 0.58963663673E+01 0.52291043723E+01 0.54547222058E+01 0.48221331840E+01
 0.42984658738E+01 0.38845644879E+01 0.35761222165E+01 0.33669752652E+01 0.32516087530E+01
 0.32266714838E+01 0.32916298743E+01 0.34489134180E+01 0.37038923177E+01 0.40646955990E+01
 0.45414591263E+01 0.51444362065E+01 0.58806330832E+01 0.67491417290E+01 0.77359959763E+01
 0.88100299633E+01 0.99215624411E+01 0.11005340617E+02 0.11987944481E+02 0.12798335558E+02
 0.13373995979E+02 0.13665566996E+02 0.13672442822E+02 0.13439079833E+02 0.13030519818E+02
 0.12504861653E+02 0.11895143220E+02 0.11208798778E+02 0.10443901385E+02 0.96122780008E+01
 0.87433860176E+01 0.78621768826E+01 0.69990026160E+01 0.61869092098E+01 0.64646193988E+01
 0.56665544827E+01 0.49733846393E+01 0.43977071626E+01 0.39415971748E+01 0.36004919972E+01
 0.33670899569E+01 0.32343930792E+01 0.31977083520E+01 0.32557329111E+01 0.34110028974E+01
 0.36699700258E+01 0.40426612731E+01 0.45414591263E+01 0.51784236654E+01 0.59609527871E+01
 0.68862647320E+01 0.79359143370E+01 0.90721150180E+01 0.10237727448E+02 0.11361015459E+02
 0.12364706205E+02 0.13163919142E+02 0.13672441593E+02 0.13863685629E+02 0.13776307893E+02
 0.13490749660E+02 0.13092702483E+02 0.12638643755E+02 0.12138768858E+02 0.11565278979E+02
 0.10881556953E+02 0.10076985290E+02 0.91878614130E+01 0.82637153684E+01 0.73423723513E+01
 0.76629110487E+01 0.67196048154E+01 0.58567945015E+01 0.51055304383E+01 0.44816076340E+01
 0.39879957367E+01 0.36194646099E+01 0.33672590462E+01 0.32227945423E+01 0.31801780831E+01
 0.32376680976E+01 0.33983094401E+01 0.36699700258E+01 0.40646955990E+01 0.45968667850E+01
 0.52795900501E+01 0.61193055627E+01 0.71094727106E+01 0.82249949817E+01 0.94194746405E+01
 0.10627092840E+02 0.11769617080E+02 0.12748655244E+02 0.13439079226E+02 0.13776306725E+02
 0.13781675658E+02 0.13547429910E+02 0.13196953782E+02 0.12834601341E+02 0.12505297288E+02
 0.12182037781E+02 0.11787649690E+02 0.11240644749E+02 0.10503196349E+02 0.96088055315E+01
 0.86425567688E+01 0.89866330190E+01 0.79495174659E+01 0.69425286360E+01 0.60183079326E+01
 0.52136687823E+01 0.45471974354E+01 0.40222381244E+01 0.36324529286E+01 0.33674059999E+01
 0.32169656931E+01 0.31743113336E+01 0.32376680976E+01 0.34110028974E+01 0.37038923177E+01
 0.41304281043E+01 0.47065836028E+01 0.54455172148E+01 0.63510561408E+01 0.74106975788E+01
 0.85903307082E+01 0.98330621593E+01 0.11063635581E+02 0.12182508384E+02 0.13030521330E+02
 0.13490749177E+02 0.13547429362E+02 0.13288406152E+02 0.12871885401E+02 0.12467237367E+02
 0.12190397818E+02 0.12059993887E+02 0.11994474859E+02 0.11852753722E+02 0.11500086458E+02
 0.10869520714E+02 0.99930024347E+01 0.10325851053E+02 0.92848804278E+01 0.81920882810E+01
 0.71251178327E+01 0.61450174560E+01 0.52938237378E+01 0.45922000019E+01 0.40432249663E+01
 0.36390510551E+01 0.33674637943E+01 0.32169656931E+01 0.31801780831E+01 0.32557329111E+01
 0.34489134180E+01 0.37712308615E+01 0.42387265009E+01 0.48683652131E+01 0.56720931228E+01
 0.66491634875E+01 0.77786823340E+01 0.90151960481E+01 0.10289839797E+02 0.11510723593E+02
 0.12504864233E+02 0.13092703569E+02 0.13196953665E+02 0.12871886107E+02 0.12288897391E+02
 0.11680853388E+02 0.11260757181E+02 0.11143234008E+02 0.11301533552E+02 0.11580814400E+02
 0.11763220694E+02 0.11655964878E+02 0.11164898190E+02 0.11387999391E+02 0.10597215111E+02
 0.95276293144E+01 0.83819981741E+01 0.72605809741E+01 0.62321845910E+01 0.53430906332E+01
 0.46150846610E+01 0.40502941901E+01 0.36390510551E+01 0.33674059999E+01 0.32227945423E+01
 0.31977083520E+01 0.32916298743E+01 0.35115121148E+01 0.38709353039E+01 0.43876362340E+01
 0.50787420420E+01 0.59534466920E+01 0.70042312582E+01 0.81993527908E+01 0.94800302755E+01
 0.10763726121E+02 0.11895144796E+02 0.12638645909E+02 0.12834601388E+02 0.12467237938E+02
 0.11680855867E+02 0.10744048784E+02 0.99675610145E+01 0.95990665165E+01 0.97332213941E+01
 0.10275996214E+02 0.10981555589E+02 0.11546488091E+02 0.11720323191E+02 0.11717239710E+02
 0.11544900567E+02 0.10801915286E+02 0.97069542526E+01 0.85124820593E+01 0.73439029576E+01
 0.62765826655E+01 0.53597091664E+01 0.46150846610E+01 0.40432249663E+01 0.36324529286E+01
 0.33672590462E+01 0.32343930792E+01 0.32266714838E+01 0.33448536962E+01 0.35978541868E+01
 0.40013351062E+01 0.45742874048E+01 0.53329335542E+01 0.62819461324E+01 0.74047546009E+01
 0.86565670135E+01 0.99639534165E+01 0.11208798429E+02 0.12138771456E+02 0.12505298154E+02
 0.12190396385E+02 0.11260758719E+02 0.99675653876E+01 0.86848206295E+01 0.77971787068E+01
 0.75708600080E+01 0.80573006327E+01 0.90730813825E+01 0.10267690093E+02 0.11249653624E+02
 0.10931137016E+02 0.11677057644E+02 0.11645722265E+02 0.10938218100E+02 0.98169432840E+01
 0.85789012670E+01 0.73720199715E+01 0.62765826655E+01 0.53430906332E+01 0.45922000019E+01
 0.40222381244E+01 0.36194646099E+01 0.33670899569E+01 0.32516087530E+01 0.32666208774E+01
 0.34145545119E+01 0.37064893065E+01 0.41600310103E+01 0.47947822985E+01 0.56247847876E+01
 0.66483033110E+01 0.78375917703E+01 0.91331864103E+01 0.10443899496E+02 0.11565280651E+02
 0.12182041060E+02 0.12059992703E+02 0.11143231038E+02 0.95990690630E+01 0.77971844252E+01
 0.62177089890E+01 0.53068560586E+01 0.53266879945E+01 0.62600573871E+01 0.78152539831E+01
 0.95303658091E+01 0.88672047622E+01 0.10650678270E+02 0.11629916038E+02 0.11700993512E+02
 0.11006162634E+02 0.98539937909E+01 0.85789012670E+01 0.73439029576E+01 0.62321845910E+01
 0.52938237378E+01 0.45471974354E+01 0.39879957367E+01 0.36004919972E+01 0.33669752652E+01
 0.32741417025E+01 0.33168223601E+01 0.34994489742E+01 0.38353510055E+01 0.43437681326E+01
 0.50440852343E+01 0.59467522335E+01 0.70417974976E+01 0.82886091445E+01 0.96122762133E+01
 0.10881555495E+02 0.11787653623E+02 0.11994478119E+02 0.11301530056E+02 0.97332173730E+01
 0.75708631934E+01 0.53068618240E+01 0.35190129672E+01 0.26942451294E+01 0.30632067088E+01
 0.45162356068E+01 0.66411944101E+01 0.56862748348E+01 0.83676172797E+01 0.10459416477E+02
 0.11599751960E+02 0.11718471375E+02 0.11006162634E+02 0.98169432840E+01 0.85124820593E+01
 0.72605809741E+01 0.61450174560E+01 0.52136687823E+01 0.44816076340E+01 0.39415971748E+01
 0.35761222165E+01 0.33669655885E+01 0.33014939487E+01 0.33761893712E+01 0.35977345347E+01
 0.39816462677E+01 0.45483176955E+01 0.53159462843E+01 0.62899630901E+01 0.74506022395E+01
 0.87433870211E+01 0.10076981268E+02 0.11240644308E+02 0.11852759476E+02 0.11580816816E+02
 0.10275990983E+02 0.80572965816E+01 0.53266910133E+01 0.26942491447E+01 0.81712530571E+00
 0.19504032621E+00 0.99876239400E+00 0.30075355237E+01 0.18976439442E+01 0.50633702348E+01
 0.80995349205E+01 0.10391644581E+02 0.11599751960E+02 0.11700993512E+02 0.10938218100E+02
 0.97069542526E+01 0.83819981741E+01 0.71251178327E+01 0.60183079326E+01 0.51055304383E+01
 0.43977071626E+01 0.38845644879E+01 0.35471047268E+01 0.33670623778E+01 0.33329431731E+01
 0.34432457489E+01 0.37070294019E+01 0.41417753287E+01 0.47684057186E+01 0.56028980874E+01
 0.66443687080E+01 0.78621815151E+01 0.91878598188E+01 0.10503190750E+02 0.11500087386E+02
 0.11763227096E+02 0.10981556525E+02 0.90730758774E+01 0.62600546332E+01 0.30632085270E+01
 0.19504086621E+00 -.16352598054E+01 -.19472551532E+01 -.65572210683E+00 -.17254616655E+01
 0.13097179525E+01 0.48470570858E+01 0.80995349205E+01 0.10459416477E+02 0.11629916038E+02
 0.11645722265E+02 0.10801915286E+02 0.95276293144E+01 0.81920882810E+01 0.69425286360E+01
 0.58567945015E+01 0.49733846393E+01 0.42984658738E+01 0.38188080844E+01 0.35143335709E+01
 0.33672176775E+01 0.33675527819E+01 0.35161291219E+01 0.38243594569E+01 0.43113153193E+01
 0.49977307434E+01 0.58963648797E+01 0.69990073021E+01 0.82637197634E+01 0.96088014048E+01
 0.10869514825E+02 0.11655967056E+02 0.11546493460E+02 0.10267689323E+02 0.78152501528E+01
 0.45162353644E+01 0.99876214002E+00 -.19472590466E+01 -.35944815095E+01 -.35140793508E+01
 -.43413665555E+01 -.20954054493E+01 0.13097179525E+01 0.50633702348E+01 0.83676172797E+01
 0.10650678270E+02 0.11677057644E+02 0.11544900567E+02 0.10597215111E+02 0.92848804278E+01
 0.79495174659E+01 0.67196048154E+01 0.56665544827E+01 0.48221331840E+01 0.41874422819E+01
 0.37465654500E+01 0.34788305778E+01 0.33673569583E+01 0.34042165800E+01 0.35926383007E+01
 0.39462081196E+01 0.44850960369E+01 0.52291038607E+01 0.61869100530E+01 0.73423791370E+01
 0.86425598394E+01 0.99929967616E+01 0.11164893602E+02 0.11720325998E+02 0.11249656237E+02
 0.95303635413E+01 0.66411939516E+01 0.30075384277E+01 -.65572473350E+00 -.35140873616E+01
 -.48588529425E+01 -.43413795135E+01 -.36249989255E+01 -.12923078492E+01 0.20680718527E+01
 0.56624504135E+01 0.87361948148E+01 0.10770412043E+02 0.11576872385E+02 0.11286051027E+02
 0.10254611921E+02 0.89264568389E+01 0.76035249885E+01 0.63993928102E+01 0.53792494013E+01
 0.45693206363E+01 0.39668334822E+01 0.35538821282E+01 0.33093487523E+01 0.32169201525E+01
 0.32697319742E+01 0.34721508563E+01 0.38386872103E+01 0.43900185615E+01 0.51457837342E+01
 0.61134952203E+01 0.72746956816E+01 0.85733927330E+01 0.99113201507E+01 0.11042565449E+02
 0.11530432030E+02 0.10986189730E+02 0.92200381349E+01 0.63464654847E+01 0.28165642072E+01
 -.65274637733E+00 -.32562474931E+01 -.36250085535E+01 -.43413937897E+01 -.32562618341E+01
 -.65276330944E+00 0.28165415199E+01 0.63464428513E+01 0.92200280011E+01 0.10986196038E+02
 0.11530443889E+02 0.11042571534E+02 0.99113223475E+01 0.85733977194E+01 0.72747007850E+01
 0.61134939381E+01 0.51457792650E+01 0.43900187280E+01 0.38386898950E+01 0.34721481335E+01
 0.32697260982E+01 0.32169211188E+01 0.33093568865E+01 0.35538874544E+01 0.39668328944E+01
 0.45693214372E+01 0.53792538800E+01 0.63993933814E+01 0.76035183102E+01 0.89264496281E+01
 0.10254607795E+02 0.11286043850E+02 0.11576859527E+02 0.10770403949E+02 0.87362027151E+01
 0.56624704894E+01 0.20680887773E+01 -.12923049110E+01 -.12299618549E+01 -.31894646017E+01
 -.35141140490E+01 -.21227685975E+01 0.61846822183E+00 0.40236800592E+01 0.73116462790E+01
 0.98330881324E+01 0.11222739353E+02 0.11444797851E+02 0.10742480339E+02 0.95234446997E+01
 0.81905714119E+01 0.69271048799E+01 0.58185782686E+01 0.49104911197E+01 0.42134290346E+01
 0.37156673535E+01 0.33965094833E+01 0.32363156988E+01 0.32227602177E+01 0.33540306611E+01
 0.36392372674E+01 0.40960486661E+01 0.47454538639E+01 0.56030338317E+01 0.66665582471E+01
 0.79026598928E+01 0.92388109051E+01 0.10544496826E+02 0.11479139894E+02 0.11611372485E+02
 0.10626383803E+02 0.84540449759E+01 0.53455916483E+01 0.18643906280E+01 0.22297884557E+01
 -.47215748540E+00 -.19961261348E+01 -.19472895492E+01 -.34524878120E+00 0.23833954521E+01
 0.55529153457E+01 0.84394978845E+01 0.10485740584E+02 0.11423372357E+02 0.11294096876E+02
 0.10384127845E+02 0.91040145833E+01 0.77894829193E+01 0.65718952485E+01 0.55242701464E+01
 0.46809658712E+01 0.40450962258E+01 0.36015294280E+01 0.33292546334E+01 0.32101761259E+01
 0.32343759337E+01 0.34025181881E+01 0.37256143731E+01 0.42221691140E+01 0.49124677571E+01
 0.58093360094E+01 0.69056291429E+01 0.81618865414E+01 0.95003982020E+01 0.10775451969E+02
 0.11629099226E+02 0.11656542915E+02 0.10590655546E+02 0.84178982964E+01 0.54371304511E+01
 0.59284650427E+01 0.31240748717E+01 0.89930371232E+00 -.17128580786E+00 0.19501217520E+00
 0.18901746797E+01 0.44546901548E+01 0.72360790800E+01 0.95959476289E+01 0.11085158891E+02
 0.11535925475E+02 0.11060336948E+02 0.99735018917E+01 0.86660465653E+01 0.73819427923E+01
 0.62200453832E+01 0.52396710736E+01 0.44641480094E+01 0.38899824149E+01 0.34995940183E+01
 0.32723814664E+01 0.31921999157E+01 0.32516111072E+01 0.34535223187E+01 0.38104091034E+01
 0.43410834324E+01 0.50646164714E+01 0.59908167626E+01 0.71080138631E+01 0.83720305908E+01
 0.97022860700E+01 0.10943672904E+02 0.11740952196E+02 0.11725345928E+02 0.10679210377E+02
 0.86376300725E+01 0.90875044928E+01 0.67626775311E+01 0.44483187335E+01 0.27383305719E+01
 0.20957429918E+01 0.26942259392E+01 0.43570903957E+01 0.66214702410E+01 0.88971614152E+01
 0.10651158572E+02 0.11550012844E+02 0.11522399308E+02 0.10738595281E+02 0.95259922555E+01
 0.82212012903E+01 0.69797785764E+01 0.58819420284E+01 0.49730023755E+01 0.42660837942E+01
 0.37522908835E+01 0.34126157089E+01 0.32275101846E+01 0.31830401900E+01 0.32741609136E+01
 0.35056787107E+01 0.38910519480E+01 0.44488791958E+01 0.51965833853E+01 0.61408826465E+01
 0.72662398451E+01 0.85253439741E+01 0.98370446360E+01 0.11045776979E+02 0.11815271140E+02
 0.11818396300E+02 0.10884989086E+02 0.11179055886E+02 0.97101162088E+01 0.78426404078E+01
 0.60583551726E+01 0.48541430839E+01 0.45780202857E+01 0.53068456096E+01 0.68197283352E+01
 0.86784009601E+01 0.10376953829E+02 0.11498283692E+02 0.11823203150E+02 0.11366291475E+02
 0.10339998430E+02 0.90642213149E+01 0.77818128482E+01 0.65945204331E+01 0.55670544481E+01
 0.47313651305E+01 0.40917742067E+01 0.36353776347E+01 0.33427210650E+01 0.31958184440E+01
 0.31830434864E+01 0.33015239235E+01 0.35575499199E+01 0.39650640551E+01 0.45419558488E+01
 0.53036644673E+01 0.62539376589E+01 0.73742462174E+01 0.86158246657E+01 0.98991568105E+01
 0.11078075962E+02 0.11847317700E+02 0.11923620145E+02 0.12018293254E+02 0.11515138196E+02
 0.10424741581E+02 0.90444930769E+01 0.77843357814E+01 0.70369606163E+01 0.70415271741E+01
 0.77971752142E+01 0.90645102332E+01 0.10452961420E+02 0.11554160351E+02 0.12067975271E+02
 0.11880349839E+02 0.11076152911E+02 0.98916672024E+01 0.86050010331E+01 0.73606874484E+01
 0.62370711999E+01 0.52837033067E+01 0.45206336541E+01 0.39451467829E+01 0.35417499922E+01
 0.32913988799E+01 0.31780103299E+01 0.31922094420E+01 0.33329768141E+01 0.36076319234E+01
 0.40301022270E+01 0.46171165270E+01 0.53819171725E+01 0.63255890873E+01 0.74276387777E+01
 0.86395272099E+01 0.98853792843E+01 0.11036635716E+02 0.11827682594E+02 0.11744260964E+02
 0.12073074584E+02 0.11836861068E+02 0.11139011028E+02 0.10234791049E+02 0.94537148938E+01
 0.90859858798E+01 0.92758948124E+01 0.99675625497E+01 0.10926563356E+02 0.11826058443E+02
 0.12359408512E+02 0.12336272595E+02 0.11732630123E+02 0.10684672839E+02 0.94311245970E+01
 0.81629957404E+01 0.69706455957E+01 0.59173876844E+01 0.50389376462E+01 0.43454686275E+01
 0.38291236400E+01 0.34731327311E+01 0.32595373318E+01 0.31743251334E+01 0.32101906493E+01
 0.33675841103E+01 0.36543812654E+01 0.40840094406E+01 0.46716559625E+01 0.54282990469E+01
 0.63528379960E+01 0.74239278172E+01 0.85948495877E+01 0.97950808407E+01 0.10918107853E+02
 0.10721145213E+02 0.11585203743E+02 0.12057425599E+02 0.12086689803E+02 0.11762339707E+02
 0.11288910057E+02 0.10914149439E+02 0.10835048946E+02 0.11119979629E+02 0.11680858600E+02