unknown system                          
   1.00000000000000     
    -2.450000    2.450000    1.274000
     2.450000   -2.450000    1.274000
     2.450000    2.450000   -1.274000
   Si
     2
Direct
  0.250000  0.750000  0.500000
  0.000000  0.000000  0.000000
 
   28   28   28
 -5.5806     -4.0439     -.40921E-01  4.9113      9.1182      11.448      11.704      10.499      8.7859      7.1627    
  5.8070      4.7786      4.0741      3.6671      3.5344      3.6671      4.0741      4.7786      5.8070      7.1627    
  8.7859      10.499      11.704      11.448      9.1182      4.9113     -.40933E-01 -4.0439     -4.0439     -4.8423    
 -2.6906      1.5557      6.3009      9.9694      11.669      11.435      10.006      8.2947      6.7398      5.4755    
  4.5407      3.9226      3.5940      3.5344      3.7391      4.2204      5.0033      6.1116      7.5377      9.2016    
  10.877      11.852      11.213      8.5041      4.1355     -.60947     -.40933E-01 -2.6907     -2.7609     -.23082    
  3.8794      8.0214      10.849      11.762      11.019      9.4254      7.7566      6.2941      5.1365      4.3031    
  3.7742      3.5236      3.5344      3.8059      4.3533      5.2018      6.3708      7.8417      9.5174      11.129    
  11.918      11.064      8.2807      4.1355      4.9113      1.5556     -.23082     0.29356      2.9000      6.5095    
  9.7384      11.548      11.645      10.461      8.7976      7.2022      5.8505      4.8082      4.0780      3.6364    
  3.4594      3.5345      3.8641      4.4653      5.3622      6.5685      8.0557      9.7146      11.254      11.936    
  11.064      8.5041      9.1182      6.3009      3.8795      2.9001      3.8004      6.1777      9.0025      11.147    
  11.913      11.285      9.8035      8.1574      6.6611      5.4320      4.5069      3.8763      3.5157      3.4046    
  3.5345      3.9106      4.5500      5.4747      6.6924      8.1662      9.7816      11.254      11.918      11.213    
  11.448      9.9694      8.0214      6.5095      6.1777      7.2051      9.1053      10.991      12.039      11.882    
  10.718      9.1154      7.5385      6.1604      5.0580      4.2457      3.7065      3.4171      3.3615      3.5345    
  3.9428      4.6028      5.5327      6.7346      8.1662      9.7146      11.129      11.852      11.704      11.669    
  10.849      9.7384      9.0025      9.1053      10.038      11.316      12.257      12.347      11.496      10.037    
  8.4487      6.9726      5.7228      4.7438      4.0343      3.5745      3.3444      3.3319      3.5345      3.9594    
  4.6207      5.5327      6.6924      8.0557      9.5174      10.877      10.499      11.435      11.762      11.548    
  11.147      10.991      11.316      12.003      12.638      12.763      12.141      10.882      9.3551      7.8422    
  6.4870      5.3659      4.5001      3.8795      3.4846      3.2999      3.3168      3.5346      3.9594      4.6028    
  5.4747      6.5685      7.8417      9.2016      8.7859      10.006      11.019      11.645      11.913      12.039    
  12.257      12.638      13.020      13.103      12.639      11.602      10.213      8.7354      7.3308      6.1038    
  5.1027      4.3343      3.7852      3.4392      3.2849      3.3168      3.5345      3.9428      4.5500      5.3622    
  6.3708      7.5377      7.1627      8.2947      9.4254      10.461      11.285      11.882      12.347      12.763    
  13.103      13.216      12.917      12.130      10.961      9.6057      8.2246      6.9436      5.8393      4.9417    
  4.2504      3.7535      3.4392      3.2999      3.3319      3.5345      3.9106      4.4653      5.2018      6.1116    
  5.8070      6.7398      7.7566      8.7976      9.8035      10.718      11.496      12.141      12.639      12.917    
  12.858      12.381      11.519      10.388      9.1232      7.8610      6.7023      5.7044      4.8875      4.2504    
  3.7852      3.4846      3.3444      3.3615      3.5345      3.8641      4.3533      5.0033      4.7786      5.4756    
  6.2941      7.2022      8.1574      9.1154      10.037      10.882      11.602      12.130      12.381      12.280    
  11.805      10.999      9.9607      8.8133      7.6721      6.6204      5.7044      4.9417      4.3343      3.8795    
  3.5745      3.4171      3.4046      3.5345      3.8059      4.2204      4.0741      4.5407      5.1365      5.8505    
  6.6611      7.5385      8.4487      9.3551      10.213      10.961      11.519      11.805      11.755      11.357    
  10.653      9.7331      8.7065      7.6721      6.7023      5.8393      5.1027      4.5001      4.0343      3.7065    
  3.5157      3.4594      3.5344      3.7391      3.6671      3.9226      4.3031      4.8082      5.4320      6.1604    
  6.9726      7.8422      8.7354      9.6058      10.388      10.999      11.357      11.400      11.113      10.532    
  9.7331      8.8133      7.8610      6.9436      6.1038      5.3659      4.7438      4.2457      3.8763      3.6364    
  3.5236      3.5344      3.5344      3.5940      3.7742      4.0780      4.5069      5.0580      5.7228      6.4870    
  7.3307      8.2246      9.1232      9.9607      10.653      11.113      11.275      11.113      10.653      9.9607    
  9.1232      8.2246      7.3308      6.4870      5.7228      5.0580      4.5069      4.0780      3.7742      3.5940    
  3.6671      3.5344      3.5236      3.6364      3.8763      4.2457      4.7438      5.3659      6.1038      6.9435    
  7.8610      8.8133      9.7331      10.532      11.113      11.400      11.357      10.999      10.388      9.6057    
  8.7354      7.8422      6.9726      6.1604      5.4320      4.8082      4.3031      3.9226      4.0741      3.7391    
  3.5344      3.4594      3.5157      3.7065      4.0343      4.5001      5.1028      5.8393      6.7023      7.6721    
  8.7065      9.7331      10.653      11.357      11.755      11.805      11.519      10.961      10.213      9.3551    
  8.4487      7.5385      6.6611      5.8505      5.1365      4.5407      4.7786      4.2204      3.8059      3.5344    
  3.4046      3.4171      3.5745      3.8794      4.3343      4.9417      5.7044      6.6204      7.6721      8.8133    
  9.9607      10.999      11.805      12.280      12.381      12.130      11.602      10.882      10.037      9.1154    
  8.1574      7.2022      6.2941      5.4755      5.8070      5.0033      4.3533      3.8641      3.5345      3.3615    
  3.3444      3.4846      3.7851      4.2504      4.8875      5.7044      6.7023      7.8610      9.1232      10.388    
  11.519      12.381      12.858      12.917      12.639      12.141      11.496      10.718      9.8035      8.7976    
  7.7566      6.7398      7.1627      6.1115      5.2018      4.4653      3.9105      3.5345      3.3319      3.2999    
  3.4392      3.7535      4.2504      4.9417      5.8393      6.9435      8.2246      9.6058      10.961      12.130    
  12.917      13.216      13.103      12.763      12.347      11.882      11.285      10.461      9.4254      8.2947    
  8.7859      7.5377      6.3708      5.3622      4.5500      3.9428      3.5345      3.3168      3.2849      3.4392    
  3.7851      4.3343      5.1028      6.1038      7.3307      8.7354      10.213      11.602      12.639      13.103    
  13.020      12.638      12.257      12.039      11.913      11.645      11.019      10.006      10.499      9.2016    
  7.8417      6.5685      5.4747      4.6028      3.9594      3.5345      3.3168      3.2999      3.4846      3.8794    
  4.5001      5.3659      6.4870      7.8422      9.3551      10.882      12.141      12.763      12.638      12.003    
  11.316      10.991      11.147      11.548      11.762      11.435      11.704      10.877      9.5174      8.0557    
  6.6924      5.5328      4.6207      3.9594      3.5345      3.3319      3.3444      3.5745      4.0343      4.7438    
  5.7228      6.9726      8.4487      10.037      11.496      12.347      12.257      11.316      10.038      9.1053    
  9.0025      9.7384      10.849      11.669      11.448      11.852      11.129      9.7146      8.1662      6.7346    
  5.5328      4.6028      3.9428      3.5345      3.3615      3.4171      3.7065      4.2457      5.0580      6.1604    
  7.5385      9.1154      10.718      11.882      12.039      10.991      9.1053      7.2051      6.1777      6.5095    
  8.0214      9.9694      9.1182      11.213      11.918      11.254      9.7816      8.1662      6.6924      5.4747    
  4.5500      3.9105      3.5345      3.4046      3.5157      3.8763      4.5069      5.4320      6.6611      8.1574    
  9.8035      11.285      11.913      11.147      9.0025      6.1777      3.8004      2.9000      3.8794      6.3009    
  4.9113      8.5041      11.064      11.936      11.254      9.7146      8.0557      6.5685      5.3622      4.4653    
  3.8641      3.5344      3.4594      3.6364      4.0780      4.8082      5.8505      7.2022      8.7976      10.461    
  11.645      11.548      9.7384      6.5095      2.9001     0.29356     -.23082      1.5557     -.40921E-01  4.1355    
  8.2807      11.064      11.918      11.129      9.5174      7.8417      6.3708      5.2018      4.3533      3.8059    
  3.5344      3.5236      3.7742      4.3031      5.1365      6.2941      7.7566      9.4254      11.019      11.762    
  10.849      8.0214      3.8795     -.23082     -2.7609     -2.6906     -4.0439     -.60945      4.1355      8.5041    
  11.213      11.852      10.877      9.2016      7.5377      6.1115      5.0033      4.2204      3.7391      3.5344    
  3.5940      3.9226      4.5407      5.4756      6.7398      8.2947      10.006      11.435      11.669      9.9694    
  6.3009      1.5556     -2.6907     -4.8423     -4.0438     -2.9282     0.57218      5.1023      9.0571      11.302    
  11.572      10.403      8.6998      7.0711      5.7003      4.6507      3.9210      3.4847      3.3167      3.4062    
  3.7597      4.3992      5.3525      6.6301      8.1884      9.8853      11.250      11.383      9.6200      6.0140    
  1.5135     -2.3321     -2.9283     -4.0438     -2.3321      1.5135      6.0140      9.6200      11.383      11.250    
  9.8853      8.1884      6.6301      5.3525      4.3992      3.7596      3.4062      3.3167      3.4847      3.9211    
  4.6508      5.7003      7.0712      8.6998      10.403      11.572      11.302      9.0571      5.1023     0.57219    
 0.67145     -2.2263     -2.6906     -.55189      3.3059      7.3935      10.330      11.420      10.825      9.2979    
  7.6428      6.1770      5.0076      4.1589      3.6134      3.3437      3.3318      3.5756      4.0898      4.9010    
  6.0326      7.4758      9.1491      10.826      11.816      11.270      8.8060      4.8631      5.3600      1.7989    
 -.35346     -.23080      2.0837      5.6046      8.9475      10.989      11.321      10.290      8.6759      7.0911    
  5.7352      4.6828      3.9416      3.4891      3.3003      3.3615      3.6748      4.2576      5.1365      6.3305    
  7.8204      9.5102      11.142      12.006      11.354      8.9531      9.4814      6.4987      3.7432      2.3512    
  2.9001      5.1089      7.9916      10.367      11.424      11.031      9.6683      8.0510      6.5601      5.3257    
  4.3933      3.7570      3.3925      3.2781      3.4046      3.7776      4.4159      5.3443      6.5763      8.0834    
  9.7599      11.339      12.150      11.566      11.862      10.274      8.0501      6.1446      5.4164      6.1777    
  8.0272      10.073      11.404      11.529      10.551      9.0130      7.4522      6.0740      4.9665      4.1510    
  3.6126      3.3274      3.2781      3.4595      3.8794      4.5563      5.5122      6.7544      8.2469      9.8806    
  11.405      12.234      12.221      12.149      11.144      9.7078      8.5802      8.3458      9.1053      10.420    
  11.565      11.922      11.292      9.9405      8.3778      6.9066      5.6533      4.6716      3.9648      3.5135    
  3.2963      3.3003      3.5237      3.9750      4.6711      5.6299      6.8527      8.2987      9.8616      11.327    
  11.096      12.069      12.319      11.888      11.162      10.660      10.725      11.316      12.030      12.345    
  11.924      10.793      9.3014      7.7964      6.4387      5.3144      4.4510      3.8406      3.4627      3.3000    
  3.3437      3.5941      4.0593      4.7535      5.6896      6.8637      8.2335      9.7007      9.4062      10.712    
  11.744      12.277      12.334      12.174      12.111      12.304      12.638      12.796      12.463      11.532    
  10.180      8.7083      7.3004      6.0691      5.0694      4.3114      3.7814      3.4612      3.3379      3.4062    
  3.6672      4.1277      4.7982      5.6867      6.7855      8.0541      7.7718      8.9961      10.196      11.241    
  11.976      12.391      12.623      12.824      13.028      13.103      12.841      12.105      10.952      9.5934    
  8.2053      6.9180      5.8140      4.9268      4.2562      3.7881      3.5082      3.4080      3.4847      3.7391    
  4.1759      4.8018      5.6206      6.6228      6.3860      7.4053      8.4969      9.5850      10.591      11.431    
  12.063      12.527      12.861      13.028      12.917      12.421      11.536      10.383      9.1036      7.8316    
  6.6722      5.6852      4.8912      4.2865      3.8598      3.6018      3.5076      3.5756      3.8059      4.2008    
  4.7637      5.4953      5.3189      6.0912      6.9792      7.9410      8.9208      9.8620      10.718      11.449    
  12.027      12.420      12.564      12.381      11.843      10.993      9.9260      8.7625      7.6188      6.5792    
  5.6896      4.9643      4.4013      3.9944      3.7388      3.6327      3.6747      3.8641      4.2008      4.6860    
  4.5737      5.1030      5.7577      6.5210      7.3629      8.2436      9.1209      9.9557      10.710      11.335    
  11.770      11.945      11.805      11.338      10.587      9.6416      8.6086      7.5873      6.6480      5.8290    
  5.1449      4.5982      4.1882      3.9150      3.7785      3.7775      3.9105      4.1759      4.1276      4.4339    
  4.8614      5.4066      6.0583      6.7960      7.5919      8.4145      9.2297      9.9968      10.661      11.154    
  11.403      11.357      11.004      10.382      9.5709      8.6633      7.7452      6.8788      6.1006      5.4288    
  4.8720      4.4359      4.1243      3.9391      3.8793      3.9427      3.9592      4.0593      4.2754      4.6087    
  5.0579      5.6160      6.2697      7.0000      7.7838      8.5922      9.3852      10.106      10.681      11.035    
  11.113      10.896      10.413      9.7295      8.9283      8.0866      7.2631      6.4958      5.8079      5.2152    
  4.7294      4.3589      4.1075      3.9749      4.0593      3.9592      3.9749      4.1075      4.3590      4.7294    
  5.2152      5.8079      6.4958      7.2631      8.0866      8.9283      9.7295      10.413      10.896      11.113    
  11.035      10.681      10.106      9.3852      8.5922      7.7838      7.0000      6.2697      5.6160      5.0578    
  4.6087      4.2754      4.4339      4.1277      3.9427      3.8793      3.9391      4.1243      4.4359      4.8720    
  5.4288      6.1007      6.8788      7.7452      8.6633      9.5709      10.382      11.004      11.357      11.403    
  11.154      10.661      9.9968      9.2297      8.4145      7.5919      6.7960      6.0582      5.4066      4.8614    
  5.1030      4.5737      4.1759      3.9105      3.7776      3.7785      3.9150      4.1882      4.5982      5.1449    
  5.8290      6.6480      7.5873      8.6086      9.6416      10.587      11.338      11.805      11.945      11.770    
  11.335      10.710      9.9557      9.1209      8.2436      7.3629      6.5210      5.7577      6.0912      5.3190    
  4.6860      4.2009      3.8641      3.6747      3.6327      3.7389      3.9944      4.4013      4.9643      5.6896    
  6.5792      7.6188      8.7625      9.9260      10.993      11.843      12.381      12.564      12.420      12.027    
  11.449      10.718      9.8620      8.9208      7.9410      6.9793      7.4053      6.3860      5.4954      4.7637    
  4.2009      3.8060      3.5756      3.5076      3.6018      3.8598      4.2864      4.8912      5.6852      6.6722    
  7.8316      9.1036      10.383      11.536      12.421      12.917      13.028      12.861      12.527      12.063    
  11.431      10.591      9.5850      8.4970      8.9962      7.7718      6.6228      5.6207      4.8018      4.1759    
  3.7391      3.4847      3.4081      3.5082      3.7880      4.2562      4.9268      5.8140      6.9180      8.2052    
  9.5933      10.952      12.105      12.841      13.103      13.028      12.824      12.623      12.391      11.976    
  11.241      10.196      10.712      9.4063      8.0541      6.7856      5.6867      4.7982      4.1277      3.6672    
  3.4062      3.3379      3.4612      3.7814      4.3114      5.0694      6.0690      7.3004      8.7083      10.180    
  11.532      12.463      12.795      12.638      12.304      12.111      12.174      12.334      12.277      11.744    
  12.069      11.096      9.7008      8.2335      6.8637      5.6896      4.7535      4.0593      3.5941      3.3437    
  3.3000      3.4627      3.8406      4.4510      5.3143      6.4387      7.7964      9.3014      10.793      11.924    
  12.345      12.030      11.316      10.725      10.660      11.162      11.888      12.319      12.149      12.221    
  11.327      9.8616      8.2987      6.8527      5.6300      4.6711      3.9749      3.5236      3.3003      3.2963    
  3.5135      3.9648      4.6716      5.6533      6.9066      8.3778      9.9404      11.292      11.922      11.565    
  10.420      9.1053      8.3458      8.5802      9.7078      11.144      10.274      11.862      12.234      11.405    
  9.8806      8.2469      6.7544      5.5122      4.5563      3.8793      3.4595      3.2780      3.3273      3.6125    
  4.1510      4.9665      6.0740      7.4522      9.0130      10.551      11.529      11.404      10.073      8.0273    
  6.1777      5.4164      6.1446      8.0502      6.4987      9.4814      11.566      12.150      11.339      9.7599    
  8.0833      6.5762      5.3442      4.4158      3.7776      3.4046      3.2780      3.3924      3.7570      4.3933    
  5.3257      6.5601      8.0510      9.6683      11.031      11.424      10.367      7.9916      5.1089      2.9001    
  2.3512      3.7432      1.7989      5.3600      8.9531      11.354      12.006      11.142      9.5101      7.8204    
  6.3304      5.1364      4.2576      3.6748      3.3615      3.3003      3.4891      3.9416      4.6828      5.7352    
  7.0911      8.6759      10.290      11.321      10.989      8.9475      5.6046      2.0838     -.23076     -.35342    
 -2.2262     0.67147      4.8631      8.8059      11.270      11.816      10.826      9.1491      7.4758      6.0325    
  4.9009      4.0898      3.5756      3.3318      3.3437      3.6134      4.1589      5.0076      6.1770      7.6428    
  9.2979      10.825      11.420      10.330      7.3935      3.3060     -.55185     -2.6906     -.40778E-01 0.67155    
  3.3735      6.9696      10.098      11.767      11.735      10.466      8.7645      7.1475      5.7802      4.7227    
  3.9737      3.5077      3.2999      3.3380      3.6254      4.1805      5.0295      6.1886      7.6319      9.2548    
  10.764      11.426      10.570      8.0890      4.6522      1.5136     0.57228     -.60930     0.57228      3.6193    
  7.2957      10.244      11.599      11.285      9.8868      8.2098      6.6690      5.3982      4.4404      3.7859    
  3.4081      3.2849      3.4081      3.7859      4.4404      5.3982      6.6690      8.2098      9.8868      11.285    
  11.599      10.244      7.2958      3.6193      3.3735     0.67155     -.40771E-01  1.5136      4.6522      8.0890    
  10.570      11.426      10.764      9.2548      7.6320      6.1886      5.0296      4.1805      3.6254      3.3380    
  3.2999      3.5077      3.9737      4.7227      5.7802      7.1475      8.7645      10.466      11.735      11.767    
  10.098      6.9696      7.2128      3.9809      1.7990      1.5558      3.3060      6.2478      9.1442      10.934    
  11.184      10.172      8.6047      7.0594      5.7295      4.6911      3.9543      3.4987      3.3000      3.3444    
  3.6327      4.1808      5.0146      6.1566      7.5987      9.2656      10.963      12.118      11.985      10.226    
  10.640      7.9963      5.3318      3.7433      3.8795      5.6046      8.0792      10.209      11.185      10.821    
  9.5253      7.9660      6.5178      5.3119      4.3972      3.7712      3.4112      3.2963      3.4171      3.7785    
  4.3982      5.3017      6.5070      7.9963      9.6820      11.353      12.433      12.268      12.585      11.267    
  9.1663      7.1672      6.1446      6.5095      7.9916      9.7984      11.048      11.212      10.323      8.8657    
  7.3645      6.0295      4.9526      4.1595      3.6383      3.3665      3.3273      3.5157      3.9391      4.6158    
  5.5690      6.8107      8.3145      9.9844      11.609      12.660      12.763      12.866      11.964      10.483    
  9.1420      8.5802      9.0024      10.073      11.118      11.505      10.974      9.7257      8.2375      6.8237    
  5.6131      4.6647      3.9862      3.5603      3.3665      3.3924      3.6364      4.1074      4.8226      5.8010    
  7.0480      8.5302      10.149      11.709      11.632      12.701      13.018      12.562      11.679      10.907    
  10.660      10.991      11.565      11.872      11.533      10.512      9.1057      7.6684      6.3643      5.2831    
  4.4575      3.8827      3.5396      3.4111      3.4891      3.7743      4.2754      5.0069      5.9829      7.2020    
  8.6259      10.158      10.009      11.372      12.443      12.960      12.905      12.530      12.188      12.111    
  12.257      12.345      12.046      11.202      9.9325      8.5308      7.1838      6.0041      5.0506      4.3370    
  3.8517      3.5765      3.4986      3.6133      3.9227      4.4339      5.1576      6.1020      7.2603      8.5922    
  8.4298      9.7084      10.941      11.980      12.643      12.900      12.900      12.843      12.824      12.763    
  12.463      11.760      10.665      9.3651      8.0381      6.8078      5.7573      4.9228      4.3060      3.8931    
  3.6690      3.6252      3.7596      4.0741      4.5737      5.2645      6.1494      7.2175      7.0758      8.1497    
  9.2782      10.373      11.340      12.075      12.533      12.774      12.879      12.861      12.639      12.105    
  11.228      10.107      8.8776      7.6621      6.5612      5.6347      4.9038      4.3647      4.0048      3.8135    
  3.7858      3.9210      4.2204      4.6860      5.3200      6.1209      6.0182      6.8454      7.7724      8.7492    
  9.7095      10.585      11.321      11.878      12.249      12.440      12.420      12.130      11.536      10.677    
  9.6350      8.5181      7.4331      6.4602      5.6431      4.9950      4.5114      4.1833      4.0047      3.9736    
  4.0897      4.3533      4.7637      5.3200      5.2646      5.8486      6.5431      7.3255      8.1588      8.9954    
  9.7856      10.488      11.071      11.505      11.753      11.770      11.519      10.993      10.230      9.3090    
  8.3265      7.3737      6.5153      5.7856      5.1950      4.7422      4.4231      4.2360      4.1807      4.2575    
  4.4652      4.8018      4.7983      5.1577      5.6244      6.1903      6.8393      7.5457      8.2761      8.9950    
  9.6688      10.264      10.743      11.056      11.154      10.999      10.587      9.9560      9.1753      8.3301    
  7.4970      6.7306      6.0608      5.4999      5.0514      4.7170      4.4987      4.3982      4.4158      4.5500    
  4.6028      4.7536      5.0071      5.3609      5.8101      6.3441      6.9458      7.5928      8.2599      8.9198    
  9.5396      10.076      10.475      10.681      10.653      10.382      9.8985      9.2604      8.5404      7.8049    
  7.1024      6.4627      5.9022      5.4305      5.0553      4.7826      4.6159      4.5563      4.6712      4.6207    
  4.6712      4.8227      5.0749      5.4251      5.8671      6.3900      6.9796      7.6190      8.2867      8.9515    
  9.5675      10.075      10.413      10.532      10.413      10.075      9.5675      8.9515      8.2868      7.6190    
  6.9796      6.3900      5.8671      5.4251      5.0749      4.8227      5.0071      4.7536      4.6028      4.5563    
  4.6159      4.7826      5.0553      5.4305      5.9022      6.4628      7.1024      7.8049      8.5404      9.2604    
  9.8985      10.382      10.653      10.681      10.475      10.076      9.5396      8.9198      8.2599      7.5928    
  6.9458      6.3441      5.8101      5.3609      5.6244      5.1577      4.7983      4.5500      4.4158      4.3982    
  4.4987      4.7170      5.0514      5.4999      6.0608      6.7306      7.4970      8.3301      9.1753      9.9560    
  10.587      10.999      11.154      11.056      10.743      10.264      9.6689      8.9951      8.2761      7.5457    
  6.8393      6.1903      6.5431      5.8486      5.2646      4.8018      4.4652      4.2575      4.1808      4.2360    
  4.4231      4.7422      5.1951      5.7856      6.5153      7.3737      8.3265      9.3090      10.230      10.993    
  11.519      11.770      11.753      11.505      11.071      10.488      9.7856      8.9954      8.1589      7.3255    
  7.7725      6.8454      6.0182      5.3200      4.7637      4.3532      4.0897      3.9736      4.0048      4.1833    
  4.5113      4.9950      5.6431      6.4602      7.4331      8.5181      9.6350      10.677      11.536      12.130    
  12.420      12.440      12.249      11.878      11.321      10.585      9.7095      8.7493      9.2782      8.1497    
  7.0758      6.1209      5.3200      4.6860      4.2203      3.9210      3.7858      3.8135      4.0048      4.3647    
  4.9038      5.6347      6.5612      7.6622      8.8776      10.107      11.228      12.105      12.639      12.861    
  12.879      12.774      12.533      12.075      11.340      10.373      10.941      9.7084      8.4297      7.2175    
  6.1494      5.2645      4.5736      4.0741      3.7596      3.6252      3.6690      3.8930      4.3060      4.9227    
  5.7573      6.8078      8.0381      9.3651      10.665      11.760      12.463      12.763      12.824      12.843    
  12.900      12.900      12.643      11.980      12.443      11.372      10.009      8.5922      7.2603      6.1020    
  5.1576      4.4339      3.9226      3.6133      3.4986      3.5765      3.8517      4.3371      5.0506      6.0040    
  7.1838      8.5308      9.9325      11.202      12.046      12.345      12.257      12.111      12.188      12.530    
  12.905      12.960      13.018      12.701      11.632      10.158      8.6258      7.2019      5.9829      5.0069    
  4.2754      3.7742      3.4891      3.4111      3.5396      3.8828      4.4576      5.2831      6.3643      7.6684    
  9.1057      10.512      11.533      11.872      11.565      10.991      10.660      10.907      11.679      12.562    
  11.964      12.866      12.763      11.709      10.149      8.5301      7.0480      5.8010      4.8226      4.1074    
  3.6364      3.3924      3.3665      3.5603      3.9862      4.6647      5.6131      6.8236      8.2375      9.7257    
  10.974      11.505      11.118      10.073      9.0024      8.5802      9.1420      10.483      9.1663      11.266    
  12.585      12.660      11.609      9.9844      8.3145      6.8107      5.5690      4.6158      3.9391      3.5157    
  3.3273      3.3665      3.6383      4.1595      4.9526      6.0295      7.3645      8.8657      10.323      11.212    
  11.048      9.7984      7.9916      6.5095      6.1446      7.1672      5.3318      7.9963      10.640      12.268    
  12.433      11.353      9.6819      7.9963      6.5070      5.3017      4.3982      3.7785      3.4171      3.2963    
  3.4112      3.7712      4.3972      5.3119      6.5178      7.9660      9.5253      10.821      11.185      10.209    
  8.0793      5.6046      3.8795      3.7432      1.7990      3.9809      7.2127      10.226      11.985      12.118    
  10.963      9.2656      7.5988      6.1566      5.0146      4.1808      3.6328      3.3444      3.3000      3.4987    
  3.9543      4.6911      5.7295      7.0594      8.6047      10.172      11.184      10.934      9.1442      6.2478    
  3.3060      1.5558      4.9114      5.3601      7.2127      9.6684      11.694      12.540      12.051      10.640    
  8.9643      7.3879      6.0484      4.9983      4.2360      3.7389      3.4846      3.4612      3.6691      4.1214    
  4.8400      5.8433      7.1209      8.6028      10.126      11.234      11.321      10.151      8.0890      6.0140    
  5.1023      4.1356      4.8632      6.9696      9.5245      11.469      12.129      11.468      9.9932      8.3566    
  6.8588      5.6168      4.6684      4.0048      3.6018      3.4391      3.5082      3.8136      4.3723      5.2082    
  6.3358      7.7317      9.3017      10.820      11.701      11.369      9.7198      7.2957      6.9696      4.8632    
  4.1356      5.1024      7.2957      9.7198      11.369      11.701      10.820      9.3017      7.7317      6.3359    
  5.2083      4.3723      3.8136      3.5082      3.4391      3.6018      4.0048      4.6684      5.6168      6.8588    
  8.3565      9.9932      11.468      12.129      11.469      9.5245      9.6684      7.2127      5.3601      4.9114    
  6.0141      8.0890      10.151      11.321      11.234      10.126      8.6027      7.1209      5.8433      4.8400    