unknown system                          
   1.00000000000000     
    -2.450000    2.450000    1.274000
     2.450000   -2.450000    1.274000
     2.450000    2.450000   -1.274000
   Si
     2
Direct
  0.250000  0.750000  0.500000
  0.000000  0.000000  0.000000
 
   28   28   28
 -5.5796     -4.0436     -.42527E-01  4.9072      9.1120      11.441      11.697      10.494      8.7835      7.1630    
  5.8096      4.7830      4.0796      3.6733      3.5408      3.6734      4.0798      4.7831      5.8097      7.1630    
  8.7835      10.494      11.697      11.441      9.1119      4.9071     -.42640E-01 -4.0437     -4.0437     -4.8404    
 -2.6886      1.5567      6.3002      9.9669      11.665      11.431      10.003      8.2932      6.7403      5.4781    
  4.5449      3.9280      3.6001      3.5408      3.7455      4.2263      5.0082      6.1144      7.5376      9.1980    
  10.870      11.843      11.203      8.4955      4.1296     -.61205     -.42640E-01 -2.6887     -2.7564     -.22517    
  3.8848      8.0254      10.851      11.763      11.018      9.4239      7.7558      6.2946      5.1388      4.3070    
  3.7794      3.5296      3.5409      3.8125      4.3595      5.2069      6.3735      7.8410      9.5126      11.120    
  11.907      11.053      8.2712      4.1296      4.9071      1.5566     -.22520     0.30270      2.9111      6.5206    
  9.7480      11.555      11.648      10.462      8.7970      7.2015      5.8509      4.8103      4.0817      3.6414    
  3.4652      3.5409      3.8709      4.4718      5.3675      6.5712      8.0545      9.7089      11.244      11.924    
  11.053      8.4955      9.1119      6.3002      3.8848      2.9111      3.8158      6.1953      9.0200      11.162    
  11.924      11.291      9.8056      8.1572      6.6604      5.4322      4.5087      3.8797      3.5204      3.4102    
  3.5409      3.9175      4.5568      5.4802      6.6950      8.1647      9.7756      11.244      11.907      11.203    
  11.441      9.9669      8.0254      6.5206      6.1953      7.2275      9.1297      11.014      12.059      11.896    
  10.725      9.1179      7.5382      6.1595      5.0580      4.2472      3.7095      3.4215      3.3670      3.5410    
  3.9500      4.6098      5.5383      6.7371      8.1647      9.7089      11.120      11.843      11.697      11.665    
  10.851      9.7480      9.0200      9.1298      10.067      11.346      12.284      12.369      11.511      10.044    
  8.4509      6.9720      5.7217      4.7435      4.0356      3.5773      3.3485      3.3372      3.5411      3.9667    
  4.6278      5.5383      6.6950      8.0545      9.5126      10.870      10.494      11.431      11.763      11.555    
  11.162      11.014      11.346      12.036      12.671      12.792      12.162      10.896      9.3614      7.8436    
  6.4861      5.3646      4.4997      3.8805      3.4871      3.3037      3.3221      3.5411      3.9667      4.6098    
  5.4802      6.5712      7.8410      9.1980      8.7835      10.003      11.018      11.648      11.924      12.059    
  12.284      12.671      13.055      13.136      12.666      11.621      10.224      8.7405      7.3315      6.1026    
  5.1013      4.3337      3.7860      3.4415      3.2887      3.3221      3.5411      3.9500      4.5568      5.3675    
  6.3735      7.5376      7.1630      8.2932      9.4239      10.462      11.291      11.896      12.369      12.792    
  13.136      13.249      12.947      12.154      10.977      9.6151      8.2283      6.9437      5.8379      4.9402    
  4.2498      3.7542      3.4415      3.3037      3.3372      3.5410      3.9175      4.4718      5.2069      6.1144    
  5.8097      6.7403      7.7557      8.7970      9.8057      10.725      11.511      12.163      12.666      12.947    
  12.887      12.407      11.539      10.401      9.1308      7.8638      6.7021      5.7029      4.8860      4.2498    
  3.7860      3.4871      3.3485      3.3670      3.5409      3.8709      4.3595      5.0082      4.7831      5.4781    
  6.2946      7.2015      8.1572      9.1179      10.044      10.896      11.621      12.154      12.407      12.305    
  11.827      11.016      9.9720      8.8196      7.6744      6.6201      5.7029      4.9402      4.3337      3.8805    
  3.5773      3.4215      3.4102      3.5409      3.8125      4.2263      4.0798      4.5449      5.1388      5.8508    
  6.6604      7.5383      8.4509      9.3614      10.224      10.977      11.539      11.827      11.776      11.375    
  10.667      9.7433      8.7124      7.6744      6.7021      5.8379      5.1013      4.4997      4.0356      3.7095    
  3.5204      3.4652      3.5409      3.7455      3.6734      3.9280      4.3069      4.8102      5.4321      6.1595    
  6.9721      7.8437      8.7405      9.6151      10.401      11.016      11.375      11.418      11.130      10.545    
  9.7433      8.8196      7.8638      6.9437      6.1026      5.3646      4.7435      4.2472      3.8797      3.6414    
  3.5296      3.5408      3.5408      3.6000      3.7793      4.0815      4.5086      5.0580      5.7217      6.4861    
  7.3315      8.2283      9.1308      9.9721      10.667      11.130      11.292      11.130      10.667      9.9720    
  9.1308      8.2283      7.3315      6.4861      5.7217      5.0580      4.5087      4.0817      3.7794      3.6001    
  3.6733      3.5406      3.5293      3.6411      3.8795      4.2471      4.7435      5.3647      6.1026      6.9437    
  7.8638      8.8196      9.7434      10.545      11.130      11.418      11.375      11.016      10.401      9.6151    
  8.7405      7.8436      6.9720      6.1595      5.4322      4.8103      4.3070      3.9280      4.0796      3.7453    
  3.5405      3.4649      3.5201      3.7093      4.0355      4.4998      5.1014      5.8380      6.7022      7.6744    
  8.7124      9.7434      10.667      11.375      11.776      11.827      11.539      10.977      10.224      9.3614    
  8.4509      7.5382      6.6604      5.8509      5.1388      4.5449      4.7830      4.2261      3.8122      3.5405    
  3.4099      3.4212      3.5771      3.8805      4.3338      4.9403      5.7030      6.6201      7.6744      8.8196    
  9.9721      11.016      11.827      12.305      12.407      12.154      11.621      10.896      10.044      9.1179    
  8.1572      7.2015      6.2946      5.4781      5.8096      5.0080      4.3592      3.8705      3.5405      3.3666    
  3.3483      3.4870      3.7860      4.2499      4.8861      5.7030      6.7022      7.8638      9.1308      10.401    
  11.539      12.407      12.887      12.947      12.666      12.162      11.511      10.725      9.8056      8.7970    
  7.7558      6.7403      7.1630      6.1143      5.2067      4.4715      3.9172      3.5407      3.3369      3.3036    
  3.4414      3.7543      4.2499      4.9403      5.8380      6.9437      8.2283      9.6151      10.977      12.154    
  12.947      13.249      13.136      12.792      12.369      11.896      11.291      10.462      9.4239      8.2932    
  8.7835      7.5376      6.3735      5.3673      4.5566      3.9497      3.5408      3.3218      3.2886      3.4414    
  3.7860      4.3338      5.1014      6.1026      7.3315      8.7405      10.224      11.621      12.666      13.136    
  13.055      12.671      12.284      12.059      11.924      11.648      11.018      10.003      10.494      9.1981    
  7.8410      6.5712      5.4801      4.6097      3.9664      3.5408      3.3218      3.3036      3.4870      3.8805    
  4.4998      5.3647      6.4861      7.8437      9.3614      10.896      12.163      12.792      12.671      12.036    
  11.346      11.014      11.162      11.555      11.763      11.431      11.697      10.870      9.5127      8.0545    
  6.6950      5.5382      4.6277      3.9664      3.5408      3.3369      3.3483      3.5771      4.0355      4.7435    
  5.7217      6.9721      8.4509      10.044      11.511      12.369      12.284      11.346      10.067      9.1297    
  9.0200      9.7480      10.851      11.665      11.441      11.843      11.120      9.7090      8.1647      6.7371    
  5.5382      4.6097      3.9497      3.5407      3.3666      3.4212      3.7093      4.2471      5.0580      6.1595    
  7.5383      9.1179      10.725      11.896      12.059      11.014      9.1298      7.2275      6.1953      6.5206    
  8.0254      9.9669      9.1120      11.203      11.907      11.244      9.7757      8.1647      6.6950      5.4801    
  4.5566      3.9172      3.5405      3.4099      3.5201      3.8795      4.5086      5.4321      6.6604      8.1572    
  9.8057      11.291      11.924      11.162      9.0200      6.1953      3.8158      2.9111      3.8848      6.3002    
  4.9072      8.4956      11.053      11.924      11.244      9.7090      8.0545      6.5712      5.3673      4.4715    
  3.8705      3.5405      3.4649      3.6411      4.0815      4.8102      5.8508      7.2015      8.7970      10.462    
  11.648      11.555      9.7480      6.5206      2.9111     0.30270     -.22517      1.5567     -.42527E-01  4.1297    
  8.2714      11.053      11.907      11.120      9.5127      7.8410      6.3735      5.2067      4.3592      3.8122    
  3.5405      3.5293      3.7793      4.3069      5.1388      6.2946      7.7557      9.4239      11.018      11.763    
  10.851      8.0254      3.8848     -.22520     -2.7564     -2.6886     -4.0436     -.61192      4.1297      8.4956    
  11.203      11.843      10.870      9.1981      7.5376      6.1143      5.0080      4.2261      3.7453      3.5406    
  3.6000      3.9280      4.5449      5.4781      6.7403      8.2932      10.003      11.431      11.665      9.9669    
  6.3002      1.5566     -2.6887     -4.8404     -4.0435     -2.9291     0.56888      5.0960      9.0484      11.292    
  11.563      10.396      8.6966      7.0709      5.7025      4.6545      3.9258      3.4899      3.3221      3.4113    
  3.7643      4.4028      5.3545      6.6302      8.1862      9.8810      11.244      11.377      9.6143      6.0101    
  1.5117     -2.3322     -2.9291     -4.0435     -2.3321      1.5117      6.0100      9.6142      11.377      11.244    
  9.8810      8.1862      6.6301      5.3544      4.4026      3.7642      3.4113      3.3222      3.4901      3.9260    
  4.6547      5.7025      7.0709      8.6966      10.396      11.564      11.292      9.0484      5.0960     0.56882    
 0.66827     -2.2261     -2.6885     -.54935      3.3076      7.3935      10.328      11.417      10.821      9.2953    
  7.6413      6.1771      5.0093      4.1622      3.6178      3.3488      3.3373      3.5812      4.0951      4.9052    
  6.0349      7.4751      9.1447      10.818      11.806      11.259      8.7958      4.8561      5.3541      1.7977    
 -.35055     -.22503      2.0907      5.6113      8.9526      10.992      11.322      10.289      8.6745      7.0900    
  5.7352      4.6843      3.9446      3.4933      3.3053      3.3671      3.6806      4.2632      5.1411      6.3328    
  7.8192      9.5047      11.132      11.994      11.342      8.9431      9.4732      6.4955      3.7456      2.3587    
  2.9113      5.1219      8.0044      10.378      11.432      11.035      9.6693      8.0503      6.5591      5.3255    
  4.3945      3.7598      3.3965      3.2830      3.4103      3.7838      4.4219      5.3491      6.5785      8.0818    
  9.7539      11.329      12.138      11.555      11.853      10.269      8.0511      6.1522      5.4300      6.1956    
  8.0470      10.092      11.420      11.540      10.557      9.0148      7.4516      6.0728      4.9661      4.1520    
  3.6151      3.3312      3.2829      3.4653      3.8858      4.5627      5.5173      6.7566      8.2452      9.8746    
  11.395      12.223      12.212      12.143      11.144      9.7141      8.5940      8.3662      9.1300      10.446    
  11.589      11.941      11.304      9.9470      8.3796      6.9058      5.6519      4.6710      3.9657      3.5158    
  3.2999      3.3052      3.5296      3.9817      4.6778      5.6352      6.8550      8.2971      9.8561      11.319    
  11.090      12.063      12.317      11.892      11.174      10.680      10.752      11.346      12.060      12.371    
  11.944      10.806      9.3075      7.7978      6.4376      5.3128      4.4504      3.8413      3.4649      3.3035    
  3.3486      3.6003      4.0663      4.7603      5.6949      6.8661      8.2324      9.6963      9.4030      10.708    
  11.741      12.278      12.343      12.190      12.136      12.334      12.671      12.827      12.489      11.552    
  10.191      8.7134      7.3012      6.0677      5.0678      4.3106      3.7819      3.4632      3.3414      3.4112    
  3.6735      4.1347      4.8049      5.6919      6.7881      8.0536      7.7718      8.9940      10.193      11.240    
  11.980      12.402      12.642      12.851      13.060      13.136      12.871      12.129      10.969      9.6030    
  8.2092      6.9182      5.8125      4.9251      4.2553      3.7885      3.5102      3.4117      3.4899      3.7455    
  4.1829      4.8084      5.6258      6.6255      6.3888      7.4057      8.4956      9.5836      10.592      11.437    
  12.076      12.548      12.888      13.058      12.947      12.447      11.557      10.397      9.1114      7.8345    
  6.6719      5.6836      4.8894      4.2856      3.8604      3.6040      3.5115      3.5810      3.8124      4.2078    
  4.7701      5.5003      5.3238      6.0939      6.9797      7.9401      8.9202      9.8639      10.725      11.462    
  12.046      12.444      12.590      12.407      11.865      11.011      9.9376      8.7688      7.6210      6.5787    
  5.6878      4.9626      4.4006      3.9952      3.7414      3.6369      3.6804      3.8707      4.2077      4.6923    
  4.5798      5.1076      5.7603      6.5215      7.3621      8.2431      9.1228      9.9619      10.721      11.352    
  11.791      11.967      11.827      11.357      10.602      9.6515      8.6141      7.5892      6.6475      5.8273    
  5.1433      4.5976      4.1893      3.9179      3.7831      3.7835      3.9172      4.1827      4.1344      4.4398    
  4.8657      5.4088      6.0585      6.7950      7.5912      8.4158      9.2347      10.006      10.675      11.171    
  11.422      11.375      11.020      10.396      9.5803      8.6688      7.7473      6.8784      6.0991      5.4273    
  4.8717      4.4373      4.1277      3.9441      3.8855      3.9496      3.9662      4.0659      4.2810      4.6127    
  5.0598      5.6160      6.2685      6.9989      7.7844      8.5960      9.3929      10.117      10.695      11.052    
  11.130      10.911      10.426      9.7394      8.9345      8.0894      7.2632      6.4945      5.8066      5.2150    
  4.7311      4.3626      4.1129      3.9814      4.0659      3.9661      3.9813      4.1127      4.3625      4.7311    
  5.2150      5.8066      6.4945      7.2632      8.0894      8.9345      9.7394      10.426      10.912      11.130    
  11.052      10.695      10.117      9.3929      8.5960      7.7845      6.9989      6.2685      5.6160      5.0599    
  4.6128      4.2811      4.4398      4.1344      3.9495      3.8854      3.9439      4.1275      4.4372      4.8716    
  5.4273      6.0991      6.8784      7.7473      8.6688      9.5803      10.396      11.020      11.375      11.422    
  11.171      10.675      10.006      9.2348      8.4158      7.5912      6.7951      6.0585      5.4089      4.8658    
  5.1076      4.5797      4.1826      3.9170      3.7833      3.7829      3.9178      4.1892      4.5976      5.1434    
  5.8274      6.6475      7.5892      8.6142      9.6515      10.602      11.357      11.827      11.967      11.791    
  11.352      10.721      9.9619      9.1228      8.2431      7.3621      6.5215      5.7603      6.0939      5.3237    
  4.6922      4.2076      3.8705      3.6802      3.6368      3.7413      3.9951      4.4006      4.9626      5.6879    
  6.5788      7.6210      8.7689      9.9376      11.011      11.865      12.407      12.590      12.444      12.046    
  11.462      10.725      9.8639      8.9202      7.9401      6.9798      7.4057      6.3888      5.5003      4.7700    
  4.2076      3.8123      3.5808      3.5114      3.6040      3.8604      4.2857      4.8895      5.6836      6.6719    
  7.8345      9.1115      10.397      11.557      12.447      12.947      13.058      12.888      12.548      12.076    
  11.437      10.592      9.5837      8.4957      8.9941      7.7718      6.6255      5.6257      4.8083      4.1827    
  3.7454      3.4897      3.4116      3.5102      3.7886      4.2554      4.9252      5.8125      6.9182      8.2092    
  9.6031      10.969      12.129      12.871      13.136      13.059      12.851      12.642      12.402      11.980    
  11.241      10.193      10.708      9.4031      8.0536      6.7881      5.6919      4.8048      4.1346      3.6734    
  3.4111      3.3414      3.4632      3.7820      4.3107      5.0679      6.0678      7.3012      8.7134      10.191    
  11.552      12.489      12.827      12.670      12.334      12.135      12.190      12.343      12.278      11.741    
  12.063      11.090      9.6964      8.2324      6.8661      5.6948      4.7602      4.0661      3.6001      3.3486    
  3.3035      3.4649      3.8413      4.4504      5.3129      6.4376      7.7978      9.3076      10.806      11.944    
  12.371      12.060      11.346      10.751      10.680      11.174      11.892      12.317      12.143      12.212    
  11.319      9.8561      8.2971      6.8550      5.6351      4.6777      3.9816      3.5295      3.3050      3.2998    
  3.5158      3.9657      4.6710      5.6519      6.9059      8.3797      9.9471      11.304      11.941      11.588    
  10.446      9.1295      8.3658      8.5938      9.7140      11.144      10.269      11.853      12.223      11.395    
  9.8746      8.2452      6.7566      5.5172      4.5626      3.8856      3.4651      3.2827      3.3310      3.6150    
  4.1520      4.9661      6.0728      7.4516      9.0149      10.557      11.540      11.419      10.092      8.0467    
  6.1952      5.4297      6.1521      8.0512      6.4956      9.4733      11.555      12.138      11.329      9.7539    
  8.0818      6.5785      5.3490      4.4217      3.7835      3.4100      3.2827      3.3963      3.7597      4.3945    
  5.3255      6.5591      8.0503      9.6693      11.035      11.432      10.378      8.0042      5.1217      2.9111    
  2.3586      3.7456      1.7978      5.3542      8.9432      11.342      11.994      11.132      9.5047      7.8192    
  6.3327      5.1409      4.2630      3.6803      3.3668      3.3051      3.4932      3.9446      4.6843      5.7352    
  7.0900      8.6745      10.289      11.322      10.992      8.9526      5.6112      2.0906     -.22509     -.35053    
 -2.2261     0.66836      4.8562      8.7958      11.259      11.806      10.818      9.1447      7.4751      6.0348    
  4.9051      4.0948      3.5810      3.3371      3.3487      3.6177      4.1622      5.0093      6.1771      7.6414    
  9.2954      10.822      11.417      10.328      7.3936      3.3076     -.54939     -2.6885     -.42230E-01 0.66853    
  3.3675      6.9602      10.086      11.755      11.724      10.458      8.7602      7.1464      5.7815      4.7255    
  3.9773      3.5117      3.3039      3.3417      3.6285      4.1826      5.0303      6.1878      7.6295      9.2506    
  10.758      11.420      10.564      8.0841      4.6492      1.5120     0.56909     -.61164     0.56906      3.6138    
  7.2877      10.234      11.589      11.276      9.8807      8.2065      6.6681      5.3993      4.4427      3.7892    
  3.4120      3.2889      3.4120      3.7893      4.4428      5.3993      6.6681      8.2065      9.8808      11.276    
  11.589      10.234      7.2879      3.6139      3.3675     0.66853     -.42242E-01  1.5119      4.6492      8.0840    
  10.564      11.420      10.758      9.2505      7.6294      6.1878      5.0303      4.1825      3.6285      3.3417    
  3.3040      3.5117      3.9774      4.7255      5.7815      7.1464      8.7602      10.458      11.724      11.755    
  10.086      6.9603      7.2038      3.9761      1.7979      1.5570      3.3078      6.2488      9.1437      10.932    
  11.181      10.168      8.6018      7.0573      5.7286      4.6916      3.9562      3.5017      3.3038      3.3485    
  3.6370      4.1848      5.0177      6.1579      7.5972      9.2602      10.954      12.106      11.972      10.214    
  10.629      7.9893      5.3298      3.7458      3.8852      5.6115      8.0857      10.213      11.188      10.821    
  9.5241      7.9640      6.5159      5.3109      4.3975      3.7729      3.4140      3.3000      3.4214      3.7831    
  4.4027      5.3053      6.5084      7.9944      9.6758      11.343      12.420      12.255      12.574      11.258    
  9.1629      7.1696      6.1524      6.5210      8.0046      9.8107      11.058      11.219      10.326      8.8657    
  7.3629      6.0276      4.9514      4.1595      3.6398      3.3692      3.3310      3.5202      3.9441      4.6207    
  5.5729      6.8121      8.3123      9.9779      11.599      12.647      12.752      12.857      11.959      10.484    
  9.1500      8.5942      9.0203      10.092      11.135      11.519      10.983      9.7300      8.2381      6.8221    
  5.6110      4.6633      3.9861      3.5616      3.3691      3.3961      3.6412      4.1128      4.8279      5.8051    
  7.0495      8.5280      10.142      11.699      11.624      12.693      13.013      12.561      11.686      10.921    
  10.680      11.015      11.589      11.893      11.550      10.522      9.1103      7.6689      6.3626      5.2810    
  4.4561      3.8826      3.5409      3.4138      3.4930      3.7793      4.2811      5.0125      5.9871      7.2036    
  8.6240      10.153      10.004      11.366      12.438      12.958      12.909      12.541      12.207      12.136    
  12.284      12.371      12.068      11.218      9.9421      8.5348      7.1839      6.0021      5.0483      4.3355    
  3.8515      3.5777      3.5013      3.6174      3.9280      4.4399      5.1633      6.1064      7.2621      8.5908    
  8.4289      9.7051      10.937      11.977      12.644      12.908      12.915      12.865      12.851      12.792    
  12.489      11.781      10.679      9.3735      8.0412      6.8074      5.7552      4.9205      4.3045      3.8928    
  3.6703      3.6281      3.7639      4.0797      4.5798      5.2703      6.1538      7.2195      7.0779      8.1492    
  9.2758      10.370      11.339      12.079      12.543      12.791      12.902      12.888      12.666      12.129    
  11.247      10.120      8.8844      7.6643      6.5604      5.6325      4.9015      4.3633      4.0047      3.8150    
  3.7889      3.9256      4.2261      4.6922      5.3257      6.1252      6.0225      6.8475      7.7723      8.7475    
  9.7076      10.585      11.326      11.888      12.266      12.462      12.444      12.154      11.556      10.693    
  9.6454      8.5235      7.4345      6.4590      5.6408      4.9927      4.5100      4.1834      4.0066      3.9771    
  4.0947      4.3592      4.7700      5.3257      5.2702      5.8528      6.5452      7.3254      8.1573      8.9939    
  9.7862      10.493      11.081      11.520      11.772      11.791      11.539      11.011      10.244      9.3176    
  8.3309      7.3747      6.5141      5.7833      5.1929      4.7410      4.4236      4.2382      4.1847      4.2629    
  4.4714      4.8082      4.8047      5.1633      5.6284      6.1922      6.8391      7.5442      8.2747      8.9954    
  9.6727      10.273      10.755      11.072      11.171      11.016      10.602      9.9673      9.1829      8.3341    
  7.4980      6.7294      6.0586      5.4979      5.0505      4.7178      4.5014      4.4026      4.4215      4.5564    
  4.6094      4.7601      5.0126      5.3647      5.8118      6.3438      6.9442      7.5912      8.2598      8.9226    
  9.5461      10.086      10.488      10.695      10.667      10.395      9.9091      9.2679      8.5447      7.8061    
  7.1014      6.4607      5.9003      5.4298      5.0564      4.7856      4.6207      4.5624      4.6775      4.6275    
  4.6776      4.8279      5.0784      5.4265      5.8665      6.3882      6.9777      7.6184      8.2886      8.9566    
  9.5759      10.087      10.426      10.545      10.426      10.087      9.5759      8.9566      8.2887      7.6185    
  6.9778      6.3882      5.8666      5.4265      5.0783      4.8279      5.0126      4.7601      4.6095      4.5625    
  4.6208      4.7856      5.0564      5.4297      5.9002      6.4607      7.1014      7.8061      8.5447      9.2679    
  9.9091      10.395      10.667      10.695      10.488      10.086      9.5462      8.9227      8.2599      7.5912    
  6.9442      6.3438      5.8118      5.3647      5.6285      5.1634      4.8048      4.5566      4.4217      4.4027    
  4.5014      4.7177      5.0504      5.4978      6.0586      6.7294      7.4980      8.3341      9.1829      9.9673    
  10.602      11.016      11.171      11.072      10.755      10.273      9.6728      8.9955      8.2747      7.5442    
  6.8391      6.1922      6.5452      5.8529      5.2704      4.8084      4.4716      4.2630      4.1847      4.2382    
  4.4235      4.7410      5.1928      5.7833      6.5141      7.3747      8.3309      9.3176      10.244      11.011    
  11.539      11.791      11.772      11.520      11.081      10.493      9.7863      8.9940      8.1574      7.3254    
  7.7723      6.8476      6.0225      5.3259      4.7701      4.3594      4.0948      3.9771      4.0066      4.1834    
  4.5100      4.9927      5.6408      6.4590      7.4345      8.5235      9.6454      10.693      11.556      12.153    
  12.444      12.461      12.266      11.888      11.326      10.585      9.7077      8.7475      9.2758      8.1492    
  7.0779      6.1253      5.3259      4.6923      4.2262      3.9257      3.7890      3.8150      4.0047      4.3633    
  4.9015      5.6325      6.5603      7.6643      8.8844      10.120      11.246      12.129      12.666      12.887    
  12.902      12.791      12.543      12.079      11.339      10.370      10.937      9.7051      8.4288      7.2195    
  6.1538      5.2704      4.5799      4.0798      3.7641      3.6282      3.6704      3.8929      4.3045      4.9205    
  5.7552      6.8074      8.0412      9.3735      10.679      11.781      12.489      12.791      12.850      12.864    
  12.915      12.908      12.644      11.977      12.438      11.366      10.004      8.5907      7.2621      6.1064    
  5.1635      4.4400      3.9282      3.6176      3.5015      3.5778      3.8516      4.3356      5.0484      6.0022    
  7.1839      8.5348      9.9421      11.218      12.068      12.371      12.284      12.135      12.207      12.541    
  12.909      12.958      13.013      12.693      11.624      10.153      8.6239      7.2036      5.9872      5.0127    
  4.2813      3.7795      3.4932      3.4139      3.5410      3.8827      4.4562      5.2810      6.3626      7.6689    
  9.1103      10.522      11.549      11.893      11.588      11.014      10.680      10.921      11.686      12.561    
  11.959      12.857      12.752      11.699      10.142      8.5279      7.0495      5.8051      4.8280      4.1130    
  3.6414      3.3963      3.3693      3.5617      3.9862      4.6634      5.6111      6.8222      8.2382      9.7300    
  10.983      11.519      11.135      10.092      9.0198      8.5938      9.1498      10.484      9.1629      11.258    
  12.574      12.647      11.599      9.9779      8.3123      6.8122      5.5729      4.6208      3.9442      3.5203    
  3.3311      3.3693      3.6398      4.1596      4.9514      6.0276      7.3629      8.8658      10.326      11.218    
  11.058      9.8104      8.0042      6.5207      6.1522      7.1696      5.3299      7.9894      10.629      12.255    
  12.420      11.343      9.6757      7.9944      6.5084      5.3053      4.4028      3.7832      3.4215      3.3000    
  3.4141      3.7729      4.3975      5.3109      6.5160      7.9640      9.5241      10.821      11.187      10.213    
  8.0855      5.6113      3.8851      3.7458      1.7979      3.9761      7.2038      10.214      11.971      12.106    
  10.954      9.2602      7.5972      6.1580      5.0178      4.1849      3.6370      3.3486      3.3038      3.5017    
  3.9562      4.6916      5.7286      7.0574      8.6018      10.168      11.181      10.932      9.1437      6.2488    
  3.3078      1.5570      4.9075      5.3544      7.2038      9.6560      11.680      12.525      12.038      10.631    
  8.9589      7.3857      6.0485      4.9997      4.2383      3.7415      3.4872      3.4634      3.6705      4.1218    
  4.8393      5.8414      7.1177      8.5982      10.120      11.227      11.314      10.144      8.0843      6.0104    
  5.0963      4.1300      4.8563      6.9602      9.5126      11.456      12.116      11.457      9.9855      8.3520    
  6.8569      5.6167      4.6695      4.0067      3.6042      3.4416      3.5104      3.8152      4.3730      5.2078    
  6.3340      7.7279      9.2957      10.812      11.691      11.358      9.7101      7.2880      6.9604      4.8564    
  4.1300      5.0962      7.2878      9.7100      11.358      11.691      10.811      9.2956      7.7279      6.3340    
  5.2078      4.3730      3.8152      3.5104      3.4415      3.6041      4.0066      4.6694      5.6166      6.8568    
  8.3520      9.9855      11.457      12.116      11.456      9.5127      9.6561      7.2038      5.3544      4.9075    
  6.0103      8.0841      10.144      11.314      11.227      10.120      8.5981      7.1177      5.8414      4.8393    