unknown system                          
   1.00000000000000     
    -2.450000    2.450000    1.274000
     2.450000   -2.450000    1.274000
     2.450000    2.450000   -1.274000
   Si
     2
Direct
  0.250000  0.750000  0.500000
  0.000000  0.000000  0.000000
 
   28   28   28
 -.55796411178E+01 -.40435837753E+01 -.42526779679E-01 0.49072115765E+01 0.91119836500E+01
 0.11441091483E+02 0.11697190878E+02 0.10493985237E+02 0.87834989387E+01 0.71630329218E+01
 0.58096493545E+01 0.47830122942E+01 0.40796436352E+01 0.36732897317E+01 0.35407504453E+01
 0.36733621988E+01 0.40797713019E+01 0.47831410250E+01 0.58097165943E+01 0.71630282383E+01
 0.87834646989E+01 0.10493955194E+02 0.11697160655E+02 0.11441046368E+02 0.91119170366E+01
 0.49071172552E+01 -.42639972424E-01 -.40436680217E+01 -.40436680217E+01 -.48404219796E+01
 -.26885941693E+01 0.15566737784E+01 0.63002252026E+01 0.99668949754E+01 0.11665072952E+02
 0.11430667531E+02 0.10002658774E+02 0.82932287897E+01 0.67403374364E+01 0.54780626587E+01
 0.45449079485E+01 0.39280406020E+01 0.36001145616E+01 0.35408291503E+01 0.37454995735E+01
 0.42263390880E+01 0.50081791936E+01 0.61143533995E+01 0.75375745069E+01 0.91980194355E+01
 0.10869998971E+02 0.11842863436E+02 0.11202726828E+02 0.84954967207E+01 0.41296194046E+01
 -.61205197816E+00 -.42639972424E-01 -.26886588301E+01 -.27563760464E+01 -.22516504089E+00
 0.38848242181E+01 0.80254325667E+01 0.10850968024E+02 0.11762644543E+02 0.11017558672E+02
 0.94238616999E+01 0.77557554709E+01 0.62945979483E+01 0.51387919888E+01 0.43070038991E+01
 0.37794442344E+01 0.35295726342E+01 0.35408627203E+01 0.38125344095E+01 0.43595312173E+01
 0.52069098036E+01 0.63735410262E+01 0.78410196064E+01 0.95126043185E+01 0.11120101396E+02
 0.11907264850E+02 0.11053013158E+02 0.82712472324E+01 0.41296194046E+01 0.49071172552E+01
 0.15565979435E+01 -.22519811478E+00 0.30269627723E+00 0.29110809485E+01 0.65206131349E+01
 0.97479938115E+01 0.11554996533E+02 0.11648222573E+02 0.10462034926E+02 0.87970306307E+01
 0.72015209738E+01 0.58508762668E+01 0.48102628296E+01 0.40817139011E+01 0.36413962706E+01
 0.34652420867E+01 0.35408807758E+01 0.38708960721E+01 0.44718181593E+01 0.53674686853E+01
 0.65712115485E+01 0.80544925750E+01 0.97089050985E+01 0.11243970441E+02 0.11924320326E+02
 0.11053013158E+02 0.84954967207E+01 0.91119170366E+01 0.63001696926E+01 0.38847946345E+01
 0.29110807109E+01 0.38157998329E+01 0.61953217880E+01 0.90199586222E+01 0.11161826414E+02
 0.11924196360E+02 0.11290645674E+02 0.98056388257E+01 0.81571500075E+01 0.66604059834E+01
 0.54321805275E+01 0.45086847566E+01 0.38797208076E+01 0.35203651119E+01 0.34102190009E+01
 0.35409237731E+01 0.39175231216E+01 0.45568490721E+01 0.54801923110E+01 0.66949961020E+01
 0.81646649773E+01 0.97756102123E+01 0.11243970441E+02 0.11907264850E+02 0.11202726828E+02
 0.11441046368E+02 0.99668639119E+01 0.80254168238E+01 0.65206247956E+01 0.61953465871E+01
 0.72275354553E+01 0.91297245756E+01 0.11014255393E+02 0.12058685414E+02 0.11895824761E+02
 0.10724855559E+02 0.91178580497E+01 0.75382390772E+01 0.61595175270E+01 0.50579921070E+01
 0.42471932153E+01 0.37095076469E+01 0.34214763077E+01 0.33669556203E+01 0.35409979556E+01
 0.39499998888E+01 0.46098410110E+01 0.55382966210E+01 0.67371370264E+01 0.81646649773E+01
 0.97089050985E+01 0.11120101396E+02 0.11842863436E+02 0.11697160655E+02 0.11665065395E+02
 0.10850969017E+02 0.97480098892E+01 0.90199976920E+01 0.91297617681E+01 0.10066527280E+02
 0.11346164295E+02 0.12284132088E+02 0.12368511942E+02 0.11510523937E+02 0.10044203712E+02
 0.84508653688E+01 0.69720434217E+01 0.57216626552E+01 0.47435281313E+01 0.40355680957E+01
 0.35772617936E+01 0.33484505430E+01 0.33372033502E+01 0.35410691952E+01 0.39666610437E+01
 0.46278375096E+01 0.55382966210E+01 0.66949961020E+01 0.80544925750E+01 0.95126043185E+01
 0.10869998971E+02 0.10493955194E+02 0.11430672415E+02 0.11762667491E+02 0.11555021723E+02
 0.11161862570E+02 0.11014305162E+02 0.11346201114E+02 0.12035897300E+02 0.12670590779E+02
 0.12791646855E+02 0.12162487134E+02 0.10895827082E+02 0.93614202129E+01 0.78436375588E+01
 0.64860921605E+01 0.53646485768E+01 0.44997193698E+01 0.38804619523E+01 0.34870976543E+01
 0.33037285516E+01 0.33220626460E+01 0.35410981038E+01 0.39666610437E+01 0.46098410110E+01
 0.54801923110E+01 0.65712115485E+01 0.78410196064E+01 0.91980194355E+01 0.87834646989E+01
 0.10002651312E+02 0.11017588570E+02 0.11648265109E+02 0.11924236325E+02 0.12058729743E+02
 0.12284178335E+02 0.12670618383E+02 0.13055322852E+02 0.13136135039E+02 0.12666392975E+02
 0.11621130137E+02 0.10224339436E+02 0.87404591370E+01 0.73314917815E+01 0.61025620836E+01
 0.51013340876E+01 0.43337398745E+01 0.37859668306E+01 0.34414535973E+01 0.32886749770E+01
 0.33220626460E+01 0.35410691952E+01 0.39499998888E+01 0.45568490721E+01 0.53674686853E+01
 0.63735410262E+01 0.75375745069E+01 0.71630282383E+01 0.82932051700E+01 0.94238687817E+01
 0.10462076141E+02 0.11290695480E+02 0.11895870301E+02 0.12368555220E+02 0.12791681584E+02
 0.13136150570E+02 0.13248797941E+02 0.12946892376E+02 0.12153730190E+02 0.10977185723E+02
 0.96151347099E+01 0.82283186838E+01 0.69437278124E+01 0.58378956672E+01 0.49401852329E+01
 0.42497915882E+01 0.37542446941E+01 0.34414535973E+01 0.33037285516E+01 0.33372033502E+01
 0.35409979556E+01 0.39175231216E+01 0.44718181593E+01 0.52069098036E+01 0.61143533995E+01
 0.58097165943E+01 0.67403315690E+01 0.77557374612E+01 0.87970423490E+01 0.98056784171E+01
 0.10724902309E+02 0.11510567785E+02 0.12162524141E+02 0.12666415124E+02 0.12946898420E+02
 0.12887153221E+02 0.12407003361E+02 0.11539471778E+02 0.10401252851E+02 0.91307985464E+01
 0.78638082456E+01 0.67021258712E+01 0.57028893195E+01 0.48859585484E+01 0.42497915882E+01
 0.37859668306E+01 0.34870976543E+01 0.33484505430E+01 0.33669556203E+01 0.35409237731E+01
 0.38708960721E+01 0.43595312173E+01 0.50081791936E+01 0.47831410250E+01 0.54780957786E+01
 0.62945799179E+01 0.72015042599E+01 0.81571604648E+01 0.91178890800E+01 0.10044241281E+02
 0.10895864020E+02 0.11621159003E+02 0.12153743826E+02 0.12407005718E+02 0.12304836651E+02
 0.11826591606E+02 0.11015938735E+02 0.99720352288E+01 0.88196345044E+01 0.76744317886E+01
 0.66200838798E+01 0.57028893195E+01 0.49401852329E+01 0.43337398745E+01 0.38804619523E+01
 0.35772617936E+01 0.34214763077E+01 0.34102190009E+01 0.35408807758E+01 0.38125344095E+01
 0.42263390880E+01 0.40797713019E+01 0.45449417081E+01 0.51387696586E+01 0.58508433297E+01
 0.66603935611E+01 0.75382502137E+01 0.84508875975E+01 0.93614457121E+01 0.10224365801E+02
 0.10977207278E+02 0.11539483627E+02 0.11826596480E+02 0.11776441863E+02 0.11375242570E+02
 0.10667388562E+02 0.97433326098E+01 0.87123981750E+01 0.76744317886E+01 0.67021258712E+01
 0.58378956672E+01 0.51013340876E+01 0.44997193698E+01 0.40355680957E+01 0.37095076469E+01
 0.35203651119E+01 0.34652420867E+01 0.35408627203E+01 0.37454995735E+01 0.36733621988E+01
 0.39280114902E+01 0.43069246791E+01 0.48101884849E+01 0.54321442377E+01 0.61595193458E+01
 0.69720616438E+01 0.78436539557E+01 0.87404720403E+01 0.96151497882E+01 0.10401270665E+02
 0.11015955219E+02 0.11375253563E+02 0.11418427272E+02 0.11129626580E+02 0.10545305035E+02
 0.97433326098E+01 0.88196345044E+01 0.78638082456E+01 0.69437278124E+01 0.61025620836E+01
 0.53646485768E+01 0.47435281313E+01 0.42471932153E+01 0.38797208076E+01 0.36413962706E+01
 0.35295726342E+01 0.35408291503E+01 0.35407504453E+01 0.35999964054E+01 0.37792630784E+01
 0.40815466855E+01 0.45085866620E+01 0.50579714765E+01 0.57216881833E+01 0.64861230728E+01
 0.73315065950E+01 0.82283220165E+01 0.91308058412E+01 0.99720538015E+01 0.10667412024E+02
 0.11129642582E+02 0.11292065897E+02 0.11129626580E+02 0.10667388562E+02 0.99720352288E+01
 0.91307985464E+01 0.82283186838E+01 0.73314917815E+01 0.64860921605E+01 0.57216626552E+01
 0.50579921070E+01 0.45086847566E+01 0.40817139011E+01 0.37794442344E+01 0.36001145616E+01
 0.36732897317E+01 0.35406370270E+01 0.35292968569E+01 0.36411172288E+01 0.38795199511E+01
 0.42471075082E+01 0.47435380809E+01 0.53647020194E+01 0.61026092235E+01 0.69437462507E+01
 0.78638077564E+01 0.88196390542E+01 0.97433535453E+01 0.10545331811E+02 0.11129642582E+02
 0.11418427272E+02 0.11375242570E+02 0.11015938735E+02 0.10401252851E+02 0.96151347099E+01
 0.87404591370E+01 0.78436375588E+01 0.69720434217E+01 0.61595175270E+01 0.54321805275E+01
 0.48102628296E+01 0.43070038991E+01 0.39280406020E+01 0.40796436352E+01 0.37452615719E+01
 0.35405325303E+01 0.34648821010E+01 0.35200629377E+01 0.37093287026E+01 0.40355216538E+01
 0.44997658540E+01 0.51014148758E+01 0.58379598566E+01 0.67021508677E+01 0.76744313927E+01
 0.87124024786E+01 0.97433535453E+01 0.10667412024E+02 0.11375253563E+02 0.11776441863E+02
 0.11826591606E+02 0.11539471778E+02 0.10977185723E+02 0.10224339436E+02 0.93614202129E+01
 0.84508653688E+01 0.75382390772E+01 0.66604059834E+01 0.58508762668E+01 0.51387919888E+01
 0.45449079485E+01 0.47830122942E+01 0.42260994934E+01 0.38121970848E+01 0.35404901551E+01
 0.34098521063E+01 0.34212131794E+01 0.35771402659E+01 0.38804650139E+01 0.43338199111E+01
 0.49402874893E+01 0.57029653005E+01 0.66201122535E+01 0.76744313927E+01 0.88196390542E+01
 0.99720538015E+01 0.11015955219E+02 0.11826596480E+02 0.12304836651E+02 0.12407003361E+02
 0.12153730190E+02 0.11621130137E+02 0.10895827082E+02 0.10044203712E+02 0.91178580497E+01
 0.81571500075E+01 0.72015209738E+01 0.62945979483E+01 0.54780626587E+01 0.58096493545E+01
 0.50080027246E+01 0.43592461761E+01 0.38705314494E+01 0.35405393725E+01 0.33666344848E+01
 0.33482569488E+01 0.34870403124E+01 0.37860111530E+01 0.42498924316E+01 0.48860692274E+01
 0.57029653005E+01 0.67021508677E+01 0.78638077564E+01 0.91308058412E+01 0.10401270665E+02
 0.11539483627E+02 0.12407005718E+02 0.12887153221E+02 0.12946892376E+02 0.12666392975E+02
 0.12162487134E+02 0.11510523937E+02 0.10724855559E+02 0.98056388257E+01 0.87970306307E+01
 0.77557554709E+01 0.67403374364E+01 0.71630329218E+01 0.61142816269E+01 0.52067349157E+01
 0.44715445974E+01 0.39171821580E+01 0.35406564575E+01 0.33369443132E+01 0.33035979608E+01
 0.34414381658E+01 0.37543052059E+01 0.42498924316E+01 0.49402874893E+01 0.58379598566E+01
 0.69437462507E+01 0.82283220165E+01 0.96151497882E+01 0.10977207278E+02 0.12153743826E+02
 0.12946898420E+02 0.13248797941E+02 0.13136135039E+02 0.12791646855E+02 0.12368511942E+02
 0.11895824761E+02 0.11290645674E+02 0.10462034926E+02 0.94238616999E+01 0.82932287897E+01
 0.87834989387E+01 0.75375870251E+01 0.63734870598E+01 0.53673278285E+01 0.45566176853E+01
 0.39497020651E+01 0.35407728930E+01 0.33218463205E+01 0.32885696132E+01 0.34414381658E+01
 0.37860111530E+01 0.43338199111E+01 0.51014148758E+01 0.61026092235E+01 0.73315065950E+01
 0.87404720403E+01 0.10224365801E+02 0.11621159003E+02 0.12666415124E+02 0.13136150570E+02
 0.13055322852E+02 0.12670590779E+02 0.12284132088E+02 0.12058685414E+02 0.11924196360E+02
 0.11648222573E+02 0.11017558672E+02 0.10002658774E+02 0.10493985237E+02 0.91980662087E+01
 0.78410439794E+01 0.65711853384E+01 0.54800946791E+01 0.46096522948E+01 0.39663949354E+01
 0.35408207130E+01 0.33218463205E+01 0.33035979608E+01 0.34870403124E+01 0.38804650139E+01
 0.44997658540E+01 0.53647020194E+01 0.64861230728E+01 0.78436539557E+01 0.93614457121E+01
 0.10895864020E+02 0.12162524141E+02 0.12791681584E+02 0.12670618383E+02 0.12035897300E+02
 0.11346164295E+02 0.11014255393E+02 0.11161826414E+02 0.11554996533E+02 0.11762644543E+02
 0.11430667531E+02 0.11697190878E+02 0.10870055786E+02 0.95126638103E+01 0.80545293115E+01
 0.66949947637E+01 0.55382284196E+01 0.46276664863E+01 0.39663949354E+01 0.35407728930E+01
 0.33369443132E+01 0.33482569488E+01 0.35771402659E+01 0.40355216538E+01 0.47435380809E+01
 0.57216881833E+01 0.69720616438E+01 0.84508875975E+01 0.10044241281E+02 0.11510567785E+02
 0.12368555220E+02 0.12284178335E+02 0.11346201114E+02 0.10066527280E+02 0.91297245756E+01
 0.90199586222E+01 0.97479938115E+01 0.10850968024E+02 0.11665072952E+02 0.11441091483E+02
 0.11842932550E+02 0.11120184191E+02 0.97089755096E+01 0.81647102248E+01 0.67371457633E+01
 0.55382284196E+01 0.46096522948E+01 0.39497020651E+01 0.35406564575E+01 0.33666344848E+01
 0.34212131794E+01 0.37093287026E+01 0.42471075082E+01 0.50579714765E+01 0.61595193458E+01
 0.75382502137E+01 0.91178890800E+01 0.10724902309E+02 0.11895870301E+02 0.12058729743E+02
 0.11014305162E+02 0.91297617681E+01 0.72275354553E+01 0.61953217880E+01 0.65206131349E+01
 0.80254325667E+01 0.99668949754E+01 0.91119836500E+01 0.11202808822E+02 0.11907366155E+02
 0.11244070164E+02 0.97756851965E+01 0.81647102248E+01 0.66949947637E+01 0.54800946791E+01
 0.45566176853E+01 0.39171821580E+01 0.35405393725E+01 0.34098521063E+01 0.35200629377E+01
 0.38795199511E+01 0.45085866620E+01 0.54321442377E+01 0.66603935611E+01 0.81571604648E+01
 0.98056784171E+01 0.11290695480E+02 0.11924236325E+02 0.11161862570E+02 0.90199976920E+01
 0.61953465871E+01 0.38157998329E+01 0.29110809485E+01 0.38848242181E+01 0.63002252026E+01
 0.49072115765E+01 0.84955929532E+01 0.11053118951E+02 0.11924434400E+02 0.11244070164E+02
 0.97089755096E+01 0.80545293115E+01 0.65711853384E+01 0.53673278285E+01 0.44715445974E+01
 0.38705314494E+01 0.35404901551E+01 0.34648821010E+01 0.36411172288E+01 0.40815466855E+01
 0.48101884849E+01 0.58508433297E+01 0.72015042599E+01 0.87970423490E+01 0.10462076141E+02
 0.11648265109E+02 0.11555021723E+02 0.97480098892E+01 0.65206247956E+01 0.29110807109E+01
 0.30269627723E+00 -.22516504089E+00 0.15566737784E+01 -.42526779679E-01 0.41297384211E+01
 0.82713552401E+01 0.11053118951E+02 0.11907366155E+02 0.11120184191E+02 0.95126638103E+01
 0.78410439794E+01 0.63734870598E+01 0.52067349157E+01 0.43592461761E+01 0.38121970848E+01
 0.35405325303E+01 0.35292968569E+01 0.37792630784E+01 0.43069246791E+01 0.51387696586E+01
 0.62945799179E+01 0.77557374612E+01 0.94238687817E+01 0.11017588570E+02 0.11762667491E+02
 0.10850969017E+02 0.80254168238E+01 0.38847946345E+01 -.22519811478E+00 -.27563760464E+01
 -.26885941693E+01 -.40435837753E+01 -.61192431569E+00 0.41297384211E+01 0.84955929532E+01
 0.11202808822E+02 0.11842932550E+02 0.10870055786E+02 0.91980662087E+01 0.75375870251E+01
 0.61142816269E+01 0.50080027246E+01 0.42260994934E+01 0.37452615719E+01 0.35406370270E+01
 0.35999964054E+01 0.39280114902E+01 0.45449417081E+01 0.54780957786E+01 0.67403315690E+01
 0.82932051700E+01 0.10002651312E+02 0.11430672415E+02 0.11665065395E+02 0.99668639119E+01
 0.63001696926E+01 0.15565979435E+01 -.26886588301E+01 -.48404219796E+01 -.40434919515E+01
 -.29290849028E+01 0.56887715134E+00 0.50959724904E+01 0.90483711926E+01 0.11292310877E+02
 0.11563482207E+02 0.10396393879E+02 0.86965745805E+01 0.70709160731E+01 0.57024691084E+01
 0.46545367385E+01 0.39257929758E+01 0.34899133665E+01 0.33220639958E+01 0.34113437379E+01
 0.37642602306E+01 0.44027505987E+01 0.53545031676E+01 0.66301666814E+01 0.81862195277E+01
 0.98810224541E+01 0.11243796685E+02 0.11377055792E+02 0.96142899840E+01 0.60100706008E+01
 0.15117107608E+01 -.23321771890E+01 -.29291393996E+01 -.40434974973E+01 -.23321444287E+01
 0.15117273035E+01 0.60100376873E+01 0.96142133328E+01 0.11376952544E+02 0.11243691571E+02
 0.98809533463E+01 0.81861992336E+01 0.66301494193E+01 0.53544337512E+01 0.44026405669E+01
 0.37641780105E+01 0.34113415159E+01 0.33221501585E+01 0.34900744709E+01 0.39259919813E+01
 0.46547032928E+01 0.57025477551E+01 0.70709273537E+01 0.86965896761E+01 0.10396452145E+02
 0.11563566368E+02 0.11292388187E+02 0.90484168851E+01 0.50959659800E+01 0.56882257032E+00
 0.66826530875E+00 -.22261412128E+01 -.26884947897E+01 -.54934692224E+00 0.33075692320E+01
 0.73935315125E+01 0.10328054639E+02 0.11417399532E+02 0.10821483732E+02 0.92952841292E+01
 0.76413339306E+01 0.61770941612E+01 0.50092920842E+01 0.41621577180E+01 0.36177550771E+01
 0.33488364343E+01 0.33373229386E+01 0.35812116560E+01 0.40950891945E+01 0.49052340217E+01
 0.60348829912E+01 0.74751464365E+01 0.91447385290E+01 0.10818127334E+02 0.11805554638E+02
 0.11258643814E+02 0.87958087572E+01 0.48561143183E+01 0.53541026073E+01 0.17976559407E+01
 -.35055244347E+00 -.22502664121E+00 0.20907234525E+01 0.56112680193E+01 0.89526386929E+01
 0.10992401234E+02 0.11322115447E+02 0.10289327857E+02 0.86744612348E+01 0.70900117291E+01
 0.57351565345E+01 0.46843272036E+01 0.39446331302E+01 0.34933352734E+01 0.33053429701E+01
 0.33670546816E+01 0.36806146499E+01 0.42632224497E+01 0.51410572462E+01 0.63327844800E+01
 0.78192305070E+01 0.95047134776E+01 0.11132321089E+02 0.11994230882E+02 0.11341723139E+02
 0.89431026193E+01 0.94731785977E+01 0.64954869525E+01 0.37455898451E+01 0.23586919534E+01
 0.29112754978E+01 0.51219004099E+01 0.80043648820E+01 0.10378087164E+02 0.11431943634E+02
 0.11035106734E+02 0.96692842998E+01 0.80502929378E+01 0.65590768793E+01 0.53255245218E+01
 0.43945495238E+01 0.37597830464E+01 0.33964625834E+01 0.32829913034E+01 0.34102786661E+01
 0.37837659221E+01 0.44218786427E+01 0.53491107122E+01 0.65785394619E+01 0.80817756886E+01
 0.97538725095E+01 0.11328638075E+02 0.12138316111E+02 0.11554937692E+02 0.11852703881E+02
 0.10268767587E+02 0.80511364595E+01 0.61522118083E+01 0.54299916608E+01 0.61955688329E+01
 0.80470275726E+01 0.10091998630E+02 0.11419590391E+02 0.11540060882E+02 0.10556735684E+02
 0.90148315782E+01 0.74516135795E+01 0.60728123670E+01 0.49661203886E+01 0.41520427635E+01
 0.36151227159E+01 0.33311839917E+01 0.32829258013E+01 0.34652849801E+01 0.38858195615E+01
 0.45626853683E+01 0.55172779996E+01 0.67566369251E+01 0.82451549015E+01 0.98745834426E+01
 0.11395350124E+02 0.12222906566E+02 0.12212334617E+02 0.12143282253E+02 0.11143592641E+02
 0.97140684100E+01 0.85939763407E+01 0.83661577791E+01 0.91299961781E+01 0.10446352290E+02
 0.11588690783E+02 0.11941201095E+02 0.11304476375E+02 0.99470413284E+01 0.83796250809E+01
 0.69058419019E+01 0.56518986558E+01 0.46710193363E+01 0.39656953885E+01 0.35158321188E+01
 0.32999287839E+01 0.33051754225E+01 0.35296473626E+01 0.39816935889E+01 0.46777870127E+01
 0.56351556488E+01 0.68549822585E+01 0.82971298603E+01 0.98560895558E+01 0.11319145411E+02
 0.11089816029E+02 0.12062897613E+02 0.12316562730E+02 0.11891974718E+02 0.11174126805E+02
 0.10680086054E+02 0.10751840587E+02 0.11346413757E+02 0.12060221798E+02 0.12371467420E+02
 0.11943876224E+02 0.10805856316E+02 0.93075313244E+01 0.77977859577E+01 0.64376158280E+01
 0.53128311081E+01 0.44503505331E+01 0.38412969602E+01 0.34648541752E+01 0.33035338559E+01
 0.33486403109E+01 0.36002648044E+01 0.40662726636E+01 0.47603116007E+01 0.56948699057E+01
 0.68660905609E+01 0.82323643459E+01 0.96963012024E+01 0.94030135381E+01 0.10708082895E+02
 0.11741024163E+02 0.12278268552E+02 0.12342733609E+02 0.12190353058E+02 0.12135607620E+02
 0.12334360079E+02 0.12670768627E+02 0.12827013165E+02 0.12489125435E+02 0.11551710474E+02
 0.10191291153E+02 0.87133843833E+01 0.73011605897E+01 0.60677250039E+01 0.50678193053E+01
 0.43106235921E+01 0.37819357014E+01 0.34631833449E+01 0.33414000143E+01 0.34111951039E+01
 0.36735210982E+01 0.41347236734E+01 0.48049225153E+01 0.56918971174E+01 0.67881196919E+01
 0.80535506801E+01 0.77717525601E+01 0.89939906475E+01 0.10193170839E+02 0.11240482986E+02
 0.11980102488E+02 0.12402360994E+02 0.12642236610E+02 0.12850965650E+02 0.13059611562E+02
 0.13136214263E+02 0.12870809715E+02 0.12129369889E+02 0.10968669023E+02 0.96030396896E+01
 0.82091603277E+01 0.69181707939E+01 0.58124912174E+01 0.49250994539E+01 0.42553377951E+01
 0.37885420307E+01 0.35102134685E+01 0.34116882458E+01 0.34898535288E+01 0.37455305612E+01
 0.41828981924E+01 0.48083992914E+01 0.56257519475E+01 0.66254859460E+01 0.63887860347E+01
 0.74056600993E+01 0.84955969578E+01 0.95836390105E+01 0.10592463973E+02 0.11436778291E+02
 0.12076033881E+02 0.12547770766E+02 0.12887877298E+02 0.13058160763E+02 0.12946885958E+02
 0.12447281638E+02 0.11556640162E+02 0.10397438080E+02 0.91114294837E+01 0.78345015604E+01
 0.66718980719E+01 0.56835538203E+01 0.48894449876E+01 0.42856157495E+01 0.38603562118E+01
 0.36040013405E+01 0.35114836757E+01 0.35809576947E+01 0.38124332879E+01 0.42077535547E+01
 0.47701166503E+01 0.55003327097E+01 0.53237514846E+01 0.60938864720E+01 0.69797241504E+01
 0.79400827214E+01 0.89201828085E+01 0.98638987724E+01 0.10725047993E+02 0.11461848979E+02
 0.12046098484E+02 0.12444257932E+02 0.12590263423E+02 0.12406953205E+02 0.11865344387E+02
 0.11010727490E+02 0.99376108345E+01 0.87688425718E+01 0.76209619885E+01 0.65787445054E+01
 0.56878198272E+01 0.49625798817E+01 0.44006145530E+01 0.39951726349E+01 0.37413852054E+01
 0.36369001856E+01 0.36803538908E+01 0.38706713286E+01 0.42076850470E+01 0.46922720294E+01
 0.45797785116E+01 0.51075970534E+01 0.57602522122E+01 0.65214610312E+01 0.73620659031E+01
 0.82430703890E+01 0.91227671270E+01 0.99619341531E+01 0.10721260138E+02 0.11352207267E+02
 0.11791111530E+02 0.11967340200E+02 0.11826536708E+02 0.11356937724E+02 0.10602114766E+02
 0.96515321142E+01 0.86141495401E+01 0.75892314757E+01 0.66474606279E+01 0.58273455579E+01
 0.51433088281E+01 0.45976034395E+01 0.41893113787E+01 0.39179278654E+01 0.37830842884E+01
 0.37835028180E+01 0.39171889986E+01 0.41826994698E+01 0.41344172443E+01 0.44398079417E+01
 0.48657096368E+01 0.54088059602E+01 0.60584943158E+01 0.67950197041E+01 0.75911795607E+01
 0.84158151932E+01 0.92347463065E+01 0.10006395962E+02 0.10675229735E+02 0.11171240913E+02
 0.11422022427E+02 0.11375198882E+02 0.11020025018E+02 0.10395551066E+02 0.95802693560E+01
 0.86687757998E+01 0.77472783409E+01 0.68784287896E+01 0.60990830843E+01 0.54273135801E+01
 0.48716658845E+01 0.44372785525E+01 0.41276521527E+01 0.39441082008E+01 0.38855405591E+01
 0.39495730766E+01 0.39661643153E+01 0.40658940226E+01 0.42810337563E+01 0.46126964339E+01
 0.50597848111E+01 0.56159921920E+01 0.62685109129E+01 0.69989380646E+01 0.77844381999E+01
 0.85960004986E+01 0.93928704697E+01 0.10117101946E+02 0.10695261411E+02 0.11051617506E+02
 0.11129592482E+02 0.10911496442E+02 0.10426028944E+02 0.97393583159E+01 0.89344943140E+01
 0.80893747436E+01 0.72632270735E+01 0.64944855247E+01 0.58065835483E+01 0.52150094956E+01
 0.47311432961E+01 0.43626486085E+01 0.41128631247E+01 0.39813828653E+01 0.40659325913E+01
 0.39661269247E+01 0.39812771368E+01 0.41127303753E+01 0.43625297695E+01 0.47310619253E+01
 0.52149753420E+01 0.58065878762E+01 0.64944981010E+01 0.72632222889E+01 0.80893599449E+01
 0.89344938972E+01 0.97393760534E+01 0.10426047281E+02 0.10911505716E+02 0.11129596163E+02
 0.11051613965E+02 0.10695246955E+02 0.10117089522E+02 0.93928792561E+01 0.85960264686E+01
 0.77844586251E+01 0.69989464698E+01 0.62685265558E+01 0.56160342641E+01 0.50598554049E+01
 0.46127850965E+01 0.42811169126E+01 0.44398295295E+01 0.41343843452E+01 0.39494685870E+01
 0.38853861931E+01 0.39439487567E+01 0.41275228386E+01 0.44371985594E+01 0.48716442496E+01
 0.54273377914E+01 0.60991153832E+01 0.68784390284E+01 0.77472736085E+01 0.86687797820E+01
 0.95802852959E+01 0.10395565751E+02 0.11020035064E+02 0.11375208050E+02 0.11422023876E+02
 0.11171227818E+02 0.10675215821E+02 0.10006401535E+02 0.92347699074E+01 0.84158403845E+01
 0.75912030642E+01 0.67950521649E+01 0.60585392794E+01 0.54088560508E+01 0.48657548623E+01
 0.51075975589E+01 0.45797426433E+01 0.41826063832E+01 0.39170366255E+01 0.37833246580E+01
 0.37829234108E+01 0.39178090424E+01 0.41892472074E+01 0.45976012329E+01 0.51433519755E+01
 0.58273908180E+01 0.66474775322E+01 0.75892300421E+01 0.86141532453E+01 0.96515429826E+01
 0.10602122548E+02 0.11356941703E+02 0.11826536108E+02 0.11967321358E+02 0.11791068032E+02
 0.11352159210E+02 0.10721233450E+02 0.99619332294E+01 0.91227835832E+01 0.82431024631E+01
 0.73621111203E+01 0.65215042227E+01 0.57602774221E+01 0.60938895252E+01 0.53237187396E+01
 0.46921962304E+01 0.42075523112E+01 0.38704936574E+01 0.36801756228E+01 0.36367610612E+01
 0.37412985772E+01 0.39951426890E+01 0.44006422567E+01 0.49626408929E+01 0.56878688112E+01
 0.65787596146E+01 0.76209625043E+01 0.87688508739E+01 0.99376214404E+01 0.11010723952E+02
 0.11865319132E+02 0.12406897402E+02 0.12590164866E+02 0.12444126779E+02 0.12045974109E+02
 0.11461766369E+02 0.10725013769E+02 0.98639058436E+01 0.89202234989E+01 0.79401374870E+01
 0.69797621069E+01 0.74056913177E+01 0.63887759064E+01 0.55002852711E+01 0.47700226026E+01
 0.42076024502E+01 0.38122515073E+01 0.35808004284E+01 0.35113865582E+01 0.36039657067E+01
 0.38603748530E+01 0.42856776740E+01 0.48895171139E+01 0.56835972438E+01 0.66719102464E+01
 0.78345125961E+01 0.91114518091E+01 0.10397446272E+02 0.11556601011E+02 0.12447176441E+02
 0.12946706113E+02 0.13057916392E+02 0.12887615968E+02 0.12547557887E+02 0.12075905403E+02
 0.11436729384E+02 0.10592476772E+02 0.95836930960E+01 0.84956578536E+01 0.89940543685E+01
 0.77717781273E+01 0.66254733801E+01 0.56257062656E+01 0.48083043984E+01 0.41827470893E+01
 0.37453638535E+01 0.34897329004E+01 0.34116411416E+01 0.35102290244E+01 0.37886023694E+01
 0.42554209790E+01 0.49251697881E+01 0.58125258860E+01 0.69181885159E+01 0.82091909906E+01
 0.96030709418E+01 0.10968648091E+02 0.12129248881E+02 0.12870569123E+02 0.13135864028E+02
 0.13059203419E+02 0.12850590919E+02 0.12641975128E+02 0.12402230844E+02 0.11980073658E+02
 0.11240520660E+02 0.10193242241E+02 0.10708172209E+02 0.94030775001E+01 0.80535725122E+01
 0.67881118955E+01 0.56918620546E+01 0.48048370208E+01 0.41345854342E+01 0.36733793356E+01
 0.34111076509E+01 0.33413825461E+01 0.34632193184E+01 0.37820059593E+01 0.43107033724E+01
 0.50678775193E+01 0.60677557634E+01 0.73011916545E+01 0.87134275121E+01 0.10191302576E+02
 0.11551620398E+02 0.12488889277E+02 0.12826627218E+02 0.12670272776E+02 0.12333847500E+02
 0.12135196789E+02 0.12190114243E+02 0.12342652264E+02 0.12278288622E+02 0.11741098632E+02
 0.12063008722E+02 0.11089918583E+02 0.96963619418E+01 0.82323833742E+01 0.68660898507E+01
 0.56948457676E+01 0.47602350770E+01 0.40661451543E+01 0.36001348494E+01 0.33485535489E+01
 0.33034988428E+01 0.34648627354E+01 0.38413402490E+01 0.44504064581E+01 0.53128734594E+01
 0.64376469483E+01 0.77978261035E+01 0.93075647587E+01 0.10805818531E+02 0.11943703653E+02
 0.12371137054E+02 0.12059751318E+02 0.11345866510E+02 0.10751331919E+02 0.10679734138E+02
 0.11173972906E+02 0.11891972060E+02 0.12316641596E+02 0.12143408079E+02 0.12212467997E+02
 0.11319249226E+02 0.98561420095E+01 0.82971464073E+01 0.68549860831E+01 0.56351319032E+01
 0.46777025825E+01 0.39815532881E+01 0.35294941176E+01 0.33050435768E+01 0.32998311484E+01
 0.35157800070E+01 0.39656923777E+01 0.46710432470E+01 0.56519245020E+01 0.69058726746E+01
 0.83796655867E+01 0.99470528619E+01 0.11304392779E+02 0.11940982806E+02 0.11588339565E+02
 0.10445898154E+02 0.91295098361E+01 0.83657539402E+01 0.85937506146E+01 0.97140265972E+01
 0.11143668160E+02 0.10268893039E+02 0.11852846015E+02 0.12223035333E+02 0.11395437592E+02
 0.98746221774E+01 0.82451682453E+01 0.67566365153E+01 0.55172334714E+01 0.45625644554E+01
 0.38856347417E+01 0.34650759705E+01 0.32827229831E+01 0.33310129406E+01 0.36150128515E+01
 0.41520004512E+01 0.49661175569E+01 0.60728256423E+01 0.74516466138E+01 0.90148753921E+01
 0.10556739199E+02 0.11539969887E+02 0.11419391546E+02 0.10091708067E+02 0.80466750953E+01
 0.61952205459E+01 0.54297464182E+01 0.61521309161E+01 0.80511940014E+01 0.64956002937E+01
 0.94733086489E+01 0.11555055957E+02 0.12138408638E+02 0.11328691380E+02 0.97538933532E+01
 0.80817836794E+01 0.65785227582E+01 0.53490242260E+01 0.44217000600E+01 0.37835222814E+01
 0.34100120154E+01 0.32827348360E+01 0.33962540257E+01 0.37596561976E+01 0.43944985851E+01
 0.53255128565E+01 0.65590885168E+01 0.80503370848E+01 0.96693442021E+01 0.11035128834E+02
 0.11431889661E+02 0.10377960290E+02 0.80041817211E+01 0.51216840531E+01 0.29110841999E+01
 0.23586020528E+01 0.37456256597E+01 0.17977509571E+01 0.53542159819E+01 0.89431916219E+01
 0.11341782153E+02 0.11994262588E+02 0.11132329850E+02 0.95047166096E+01 0.78192321005E+01
 0.63327436498E+01 0.51409218427E+01 0.42629905991E+01 0.36803331017E+01 0.33667713153E+01
 0.33050948782E+01 0.34931615561E+01 0.39445514073E+01 0.46843067177E+01 0.57351554330E+01
 0.70900304567E+01 0.86745208287E+01 0.10289411044E+02 0.11322173318E+02 0.10992407709E+02
 0.89525988888E+01 0.56111890634E+01 0.20906233487E+01 -.22509431521E+00 -.35053451028E+00
 -.22260797631E+01 0.66835904647E+00 0.48561822726E+01 0.87958287940E+01 0.11258628027E+02
 0.11805519915E+02 0.10818095144E+02 0.91447297187E+01 0.74751420913E+01 0.60348182983E+01
 0.49050642049E+01 0.40948412275E+01 0.35809507468E+01 0.33370987791E+01 0.33486816355E+01
 0.36176920863E+01 0.41621701752E+01 0.50093226577E+01 0.61771077434E+01 0.76413570893E+01
 0.92953533033E+01 0.10821585322E+02 0.11417491217E+02 0.10328114088E+02 0.73935537100E+01
 0.33075506135E+01 -.54938526938E+00 -.26884990661E+01 -.42230054493E-01 0.66852907585E+00
 0.33674932235E+01 0.69602109879E+01 0.10086096471E+02 0.11754898343E+02 0.11723569444E+02
 0.10458255185E+02 0.87601860982E+01 0.71463782756E+01 0.57814826640E+01 0.47254607269E+01
 0.39773123858E+01 0.35117050166E+01 0.33039440027E+01 0.33417188648E+01 0.36284962907E+01
 0.41825989756E+01 0.50303373431E+01 0.61878370329E+01 0.76294521810E+01 0.92505707974E+01
 0.10758073361E+02 0.11419689266E+02 0.10563793943E+02 0.80841119428E+01 0.46492269384E+01
 0.15119719470E+01 0.56909016003E+00 -.61164261148E+00 0.56906006436E+00 0.36138251092E+01
 0.72877408832E+01 0.10233843736E+02 0.11588622619E+02 0.11276131471E+02 0.98807203568E+01
 0.82065125483E+01 0.66681473340E+01 0.53992654576E+01 0.44427396044E+01 0.37892185037E+01
 0.34119887257E+01 0.32889474274E+01 0.34120176453E+01 0.37892779700E+01 0.44427999040E+01
 0.53992866416E+01 0.66681412477E+01 0.82065376458E+01 0.98808078263E+01 0.11276258027E+02
 0.11588757705E+02 0.10233976994E+02 0.72878576047E+01 0.36139006977E+01 0.33675228099E+01
 0.66852943530E+00 -.42241798244E-01 0.15119366835E+01 0.46491536739E+01 0.80840164142E+01