   2   2   0   0
  0.1529437E+02  0.3691622E-09  0.3691622E-09  0.3691622E-09  0.5000000E-15
  1.000000000000000E-004
  CAR 
 unknown system                          
     22.72413840     -6.61359055  301      9.01006222      1.00000000
     -6.614  0.0000E+00  0.0000E+00
     -6.516  0.0000E+00  0.0000E+00
     -6.418  0.0000E+00  0.0000E+00
     -6.320  0.0000E+00  0.0000E+00
     -6.222  0.0000E+00  0.0000E+00
     -6.125  0.0000E+00  0.0000E+00
     -6.027  0.0000E+00  0.0000E+00
     -5.929  0.0000E+00  0.0000E+00
     -5.831  0.0000E+00  0.0000E+00
     -5.733  0.4854E-17  0.4747E-18
     -5.636  0.9753E-15  0.9585E-16
     -5.538  0.1249E-12  0.1231E-13
     -5.440  0.9993E-11  0.9895E-12
     -5.342  0.5003E-09  0.4992E-10
     -5.244  0.1569E-07  0.1585E-08
     -5.147  0.3090E-06  0.3180E-07
     -5.049  0.3827E-05  0.4061E-06
     -4.951  0.2996E-04  0.3336E-05
     -4.853  0.1500E-03  0.1800E-04
     -4.756  0.4948E-03  0.6639E-04
     -4.658  0.1160E-02  0.1798E-03
     -4.560  0.2195E-02  0.3944E-03
     -4.462  0.3680E-02  0.7543E-03
     -4.364  0.5429E-02  0.1285E-02
     -4.267  0.7328E-02  0.2002E-02
     -4.169  0.9984E-02  0.2978E-02
     -4.071  0.1259E-01  0.4209E-02
     -3.973  0.1229E-01  0.5411E-02
     -3.875  0.9219E-02  0.6312E-02
     -3.778  0.8344E-02  0.7128E-02
     -3.680  0.1349E-01  0.8448E-02
     -3.582  0.2186E-01  0.1059E-01
     -3.484  0.2606E-01  0.1313E-01
     -3.386  0.2257E-01  0.1534E-01
     -3.289  0.1539E-01  0.1685E-01
     -3.191  0.1063E-01  0.1789E-01
     -3.093  0.9806E-02  0.1884E-01
     -2.995  0.9744E-02  0.1980E-01
     -2.897  0.9178E-02  0.2069E-01
     -2.800  0.1171E-01  0.2184E-01
     -2.702  0.2013E-01  0.2381E-01
     -2.604  0.3044E-01  0.2679E-01
     -2.506  0.3470E-01  0.3018E-01
     -2.409  0.3195E-01  0.3330E-01
     -2.311  0.2945E-01  0.3618E-01
     -2.213  0.3078E-01  0.3919E-01
     -2.115  0.3112E-01  0.4224E-01
     -2.017  0.2615E-01  0.4479E-01
     -1.920  0.1934E-01  0.4668E-01
     -1.822  0.1657E-01  0.4831E-01
     -1.724  0.1917E-01  0.5018E-01
     -1.626  0.2448E-01  0.5257E-01
     -1.528  0.2679E-01  0.5519E-01
     -1.431  0.2312E-01  0.5746E-01
     -1.333  0.1970E-01  0.5938E-01
     -1.235  0.2290E-01  0.6162E-01
     -1.137  0.2774E-01  0.6433E-01
     -1.039  0.2672E-01  0.6695E-01
     -0.942  0.2356E-01  0.6925E-01
     -0.844  0.2627E-01  0.7182E-01
     -0.746  0.3487E-01  0.7523E-01
     -0.648  0.4318E-01  0.7945E-01
     -0.550  0.4724E-01  0.8407E-01
     -0.453  0.4647E-01  0.8862E-01
     -0.355  0.3873E-01  0.9240E-01
     -0.257  0.2554E-01  0.9490E-01
     -0.159  0.1725E-01  0.9659E-01
     -0.061  0.2228E-01  0.9877E-01
      0.036  0.3662E-01  0.1023E+00
      0.134  0.4780E-01  0.1070E+00
      0.232  0.4757E-01  0.1117E+00
      0.330  0.3829E-01  0.1154E+00
      0.427  0.2834E-01  0.1182E+00
      0.525  0.2406E-01  0.1205E+00
      0.623  0.2538E-01  0.1230E+00
      0.721  0.2872E-01  0.1258E+00
      0.819  0.3298E-01  0.1291E+00
      0.916  0.4027E-01  0.1330E+00
      1.014  0.4926E-01  0.1378E+00
      1.112  0.5492E-01  0.1432E+00
      1.210  0.5704E-01  0.1488E+00
      1.308  0.5919E-01  0.1546E+00
      1.405  0.5946E-01  0.1604E+00
      1.503  0.5123E-01  0.1654E+00
      1.601  0.3572E-01  0.1689E+00
      1.699  0.2362E-01  0.1712E+00
      1.797  0.2000E-01  0.1731E+00
      1.894  0.1842E-01  0.1749E+00
      1.992  0.1394E-01  0.1763E+00
      2.090  0.1171E-01  0.1774E+00
      2.188  0.1849E-01  0.1793E+00
      2.286  0.3186E-01  0.1824E+00
      2.383  0.4078E-01  0.1864E+00
      2.481  0.3934E-01  0.1902E+00
      2.579  0.3489E-01  0.1936E+00
      2.677  0.3520E-01  0.1971E+00
      2.774  0.3917E-01  0.2009E+00
      2.872  0.4398E-01  0.2052E+00
      2.970  0.4925E-01  0.2100E+00
      3.068  0.5426E-01  0.2153E+00
      3.166  0.5691E-01  0.2209E+00
      3.263  0.5420E-01  0.2262E+00
      3.361  0.4513E-01  0.2306E+00
      3.459  0.3605E-01  0.2341E+00
      3.557  0.3661E-01  0.2377E+00
      3.655  0.4672E-01  0.2423E+00
      3.752  0.5575E-01  0.2477E+00
      3.850  0.5691E-01  0.2533E+00
      3.948  0.5251E-01  0.2584E+00
      4.046  0.4667E-01  0.2630E+00
      4.144  0.4016E-01  0.2669E+00
      4.241  0.3269E-01  0.2701E+00
      4.339  0.2779E-01  0.2728E+00
      4.437  0.2854E-01  0.2756E+00
      4.535  0.3371E-01  0.2789E+00
      4.633  0.4179E-01  0.2830E+00
      4.730  0.5126E-01  0.2880E+00
      4.828  0.6042E-01  0.2939E+00
      4.926  0.6722E-01  0.3005E+00
      5.024  0.6774E-01  0.3071E+00
      5.122  0.6089E-01  0.3131E+00
      5.219  0.5131E-01  0.3181E+00
      5.317  0.4723E-01  0.3227E+00
      5.415  0.5191E-01  0.3278E+00
      5.513  0.5480E-01  0.3331E+00
      5.610  0.4527E-01  0.3376E+00
      5.708  0.2856E-01  0.3404E+00
      5.806  0.1569E-01  0.3419E+00
      5.904  0.1266E-01  0.3431E+00
      6.002  0.2272E-01  0.3454E+00
      6.099  0.4520E-01  0.3498E+00
      6.197  0.7233E-01  0.3569E+00
      6.295  0.9309E-01  0.3660E+00
      6.393  0.9916E-01  0.3757E+00
      6.491  0.8962E-01  0.3844E+00
      6.588  0.7360E-01  0.3916E+00
      6.686  0.6269E-01  0.3977E+00
      6.784  0.5890E-01  0.4035E+00
      6.882  0.5447E-01  0.4088E+00
      6.980  0.4555E-01  0.4133E+00
      7.077  0.4088E-01  0.4173E+00
      7.175  0.4997E-01  0.4222E+00
      7.273  0.6708E-01  0.4287E+00
      7.371  0.7801E-01  0.4364E+00
      7.469  0.7876E-01  0.4441E+00
      7.566  0.7373E-01  0.4513E+00
      7.664  0.6547E-01  0.4577E+00
      7.762  0.5852E-01  0.4634E+00
      7.860  0.5819E-01  0.4691E+00
      7.957  0.6017E-01  0.4750E+00
      8.055  0.5672E-01  0.4805E+00
      8.153  0.5258E-01  0.4857E+00
      8.251  0.5734E-01  0.4913E+00
      8.349  0.6504E-01  0.4976E+00
      8.446  0.6365E-01  0.5039E+00
      8.544  0.5595E-01  0.5093E+00
      8.642  0.5050E-01  0.5143E+00
      8.740  0.4866E-01  0.5190E+00
      8.838  0.5036E-01  0.5240E+00
      8.935  0.5415E-01  0.5292E+00
      9.033  0.5437E-01  0.5346E+00
      9.131  0.5045E-01  0.5395E+00
      9.229  0.4873E-01  0.5443E+00
      9.327  0.4978E-01  0.5491E+00
      9.424  0.4668E-01  0.5537E+00
      9.522  0.3802E-01  0.5574E+00
      9.620  0.3109E-01  0.5605E+00
      9.718  0.3011E-01  0.5634E+00
      9.816  0.3058E-01  0.5664E+00
      9.913  0.2773E-01  0.5691E+00
     10.011  0.2311E-01  0.5714E+00
     10.109  0.2192E-01  0.5735E+00
     10.207  0.2676E-01  0.5761E+00
     10.304  0.3482E-01  0.5795E+00
     10.402  0.4145E-01  0.5836E+00
     10.500  0.4835E-01  0.5883E+00
     10.598  0.6169E-01  0.5943E+00
     10.696  0.7606E-01  0.6018E+00
     10.793  0.7564E-01  0.6092E+00
     10.891  0.5927E-01  0.6150E+00
     10.989  0.4599E-01  0.6195E+00
     11.087  0.5019E-01  0.6244E+00
     11.185  0.6416E-01  0.6307E+00
     11.282  0.7015E-01  0.6375E+00
     11.380  0.6597E-01  0.6440E+00
     11.478  0.6581E-01  0.6504E+00
     11.576  0.7640E-01  0.6579E+00
     11.674  0.8987E-01  0.6667E+00
     11.771  0.9624E-01  0.6761E+00
     11.869  0.8984E-01  0.6849E+00
     11.967  0.7157E-01  0.6919E+00
     12.065  0.5096E-01  0.6968E+00
     12.163  0.4062E-01  0.7008E+00
     12.260  0.4692E-01  0.7054E+00
     12.358  0.6567E-01  0.7118E+00
     12.456  0.8562E-01  0.7202E+00
     12.554  0.9459E-01  0.7294E+00
     12.652  0.8496E-01  0.7378E+00
     12.749  0.6009E-01  0.7436E+00
     12.847  0.3411E-01  0.7470E+00
     12.945  0.1992E-01  0.7489E+00
     13.043  0.2152E-01  0.7510E+00
     13.140  0.3587E-01  0.7545E+00
     13.238  0.5223E-01  0.7596E+00
     13.336  0.5905E-01  0.7654E+00
     13.434  0.6044E-01  0.7713E+00
     13.532  0.6996E-01  0.7782E+00
     13.629  0.8694E-01  0.7867E+00
     13.727  0.9696E-01  0.7961E+00
     13.825  0.9216E-01  0.8052E+00
     13.923  0.7721E-01  0.8127E+00
     14.021  0.6228E-01  0.8188E+00
     14.118  0.5766E-01  0.8244E+00
     14.216  0.6700E-01  0.8310E+00
     14.314  0.8400E-01  0.8392E+00
     14.412  0.9843E-01  0.8488E+00
     14.510  0.1012E+00  0.8587E+00
     14.607  0.9025E-01  0.8676E+00
     14.705  0.7440E-01  0.8748E+00
     14.803  0.6284E-01  0.8810E+00
     14.901  0.5499E-01  0.8863E+00
     14.999  0.4885E-01  0.8911E+00
     15.096  0.4815E-01  0.8958E+00
     15.194  0.5674E-01  0.9014E+00
     15.292  0.6990E-01  0.9082E+00
     15.390  0.7505E-01  0.9156E+00
     15.487  0.6609E-01  0.9220E+00
     15.585  0.4897E-01  0.9268E+00
     15.683  0.3335E-01  0.9301E+00
     15.781  0.2736E-01  0.9327E+00
     15.879  0.3575E-01  0.9362E+00
     15.976  0.5416E-01  0.9415E+00
     16.074  0.6750E-01  0.9481E+00
     16.172  0.6493E-01  0.9545E+00
     16.270  0.5238E-01  0.9596E+00
     16.368  0.4274E-01  0.9638E+00
     16.465  0.4176E-01  0.9679E+00
     16.563  0.4649E-01  0.9724E+00
     16.661  0.5184E-01  0.9775E+00
     16.759  0.5518E-01  0.9829E+00
     16.857  0.5401E-01  0.9882E+00
     16.954  0.4545E-01  0.9926E+00
     17.052  0.3280E-01  0.9958E+00
     17.150  0.2429E-01  0.9982E+00
     17.248  0.2346E-01  0.1000E+01
     17.346  0.2788E-01  0.1003E+01
     17.443  0.3348E-01  0.1006E+01
     17.541  0.3569E-01  0.1010E+01
     17.639  0.3101E-01  0.1013E+01
     17.737  0.2171E-01  0.1015E+01
     17.835  0.1614E-01  0.1017E+01
     17.932  0.2082E-01  0.1019E+01
     18.030  0.3253E-01  0.1022E+01
     18.128  0.4061E-01  0.1026E+01
     18.226  0.3797E-01  0.1030E+01
     18.323  0.2911E-01  0.1032E+01
     18.421  0.2460E-01  0.1035E+01
     18.519  0.2844E-01  0.1038E+01
     18.617  0.3498E-01  0.1041E+01
     18.715  0.3722E-01  0.1045E+01
     18.812  0.3317E-01  0.1048E+01
     18.910  0.2523E-01  0.1050E+01
     19.008  0.1786E-01  0.1052E+01
     19.106  0.1438E-01  0.1054E+01
     19.204  0.1417E-01  0.1055E+01
     19.301  0.1499E-01  0.1056E+01
     19.399  0.1601E-01  0.1058E+01
     19.497  0.1592E-01  0.1060E+01
     19.595  0.1349E-01  0.1061E+01
     19.693  0.1039E-01  0.1062E+01
     19.790  0.7997E-02  0.1063E+01
     19.888  0.5386E-02  0.1063E+01
     19.986  0.2640E-02  0.1063E+01
     20.084  0.8645E-03  0.1064E+01
     20.182  0.1924E-03  0.1064E+01
     20.279  0.1065E-03  0.1064E+01
     20.377  0.4878E-03  0.1064E+01
     20.475  0.1869E-02  0.1064E+01
     20.573  0.4664E-02  0.1064E+01
     20.670  0.7586E-02  0.1065E+01
     20.768  0.8061E-02  0.1066E+01
     20.866  0.5600E-02  0.1066E+01
     20.964  0.2537E-02  0.1067E+01
     21.062  0.7466E-03  0.1067E+01
     21.159  0.1419E-03  0.1067E+01
     21.257  0.1732E-04  0.1067E+01
     21.355  0.1349E-05  0.1067E+01
     21.453  0.6674E-07  0.1067E+01
     21.551  0.2088E-08  0.1067E+01
     21.648  0.4115E-10  0.1067E+01
     21.746  0.5096E-12  0.1067E+01
     21.844  0.3953E-14  0.1067E+01
     21.942  0.1942E-16  0.1067E+01
     22.040  0.0000E+00  0.1067E+01
     22.137  0.0000E+00  0.1067E+01
     22.235  0.0000E+00  0.1067E+01
     22.333  0.0000E+00  0.1067E+01
     22.431  0.0000E+00  0.1067E+01
     22.529  0.0000E+00  0.1067E+01
     22.626  0.0000E+00  0.1067E+01
     22.724  0.0000E+00  0.1067E+01
