   2   2   0   0
  0.1529437E+02  0.3691622E-09  0.3691622E-09  0.3691622E-09  0.5000000E-15
  1.000000000000000E-004
  CAR 
 unknown system                          
     23.24649561     -6.61800969  301      8.96469073      1.00000000
     -6.618  0.0000E+00  0.0000E+00
     -6.518  0.0000E+00  0.0000E+00
     -6.419  0.0000E+00  0.0000E+00
     -6.319  0.0000E+00  0.0000E+00
     -6.220  0.0000E+00  0.0000E+00
     -6.120  0.0000E+00  0.0000E+00
     -6.021  0.0000E+00  0.0000E+00
     -5.921  0.0000E+00  0.0000E+00
     -5.822  0.0000E+00  0.0000E+00
     -5.722  0.1149E-16  0.1144E-17
     -5.623  0.2372E-14  0.2373E-15
     -5.523  0.3028E-12  0.3038E-13
     -5.423  0.2376E-10  0.2395E-11
     -5.324  0.1147E-08  0.1166E-09
     -5.224  0.3414E-07  0.3515E-08
     -5.125  0.6274E-06  0.6597E-07
     -5.025  0.7138E-05  0.7766E-06
     -4.926  0.5056E-04  0.5810E-05
     -4.826  0.2261E-03  0.2832E-04
     -4.727  0.6648E-03  0.9450E-04
     -4.627  0.1418E-02  0.2357E-03
     -4.527  0.2556E-02  0.4901E-03
     -4.428  0.4211E-02  0.9093E-03
     -4.328  0.6276E-02  0.1534E-02
     -4.229  0.8987E-02  0.2429E-02
     -4.129  0.1229E-01  0.3652E-02
     -4.030  0.1340E-01  0.4986E-02
     -3.930  0.1039E-01  0.6020E-02
     -3.831  0.7231E-02  0.6740E-02
     -3.731  0.9688E-02  0.7704E-02
     -3.632  0.1769E-01  0.9465E-02
     -3.532  0.2416E-01  0.1187E-01
     -3.432  0.2344E-01  0.1420E-01
     -3.333  0.1798E-01  0.1599E-01
     -3.233  0.1309E-01  0.1730E-01
     -3.134  0.1137E-01  0.1843E-01
     -3.034  0.1153E-01  0.1958E-01
     -2.935  0.1109E-01  0.2068E-01
     -2.835  0.1185E-01  0.2186E-01
     -2.736  0.1807E-01  0.2366E-01
     -2.636  0.2832E-01  0.2648E-01
     -2.537  0.3471E-01  0.2993E-01
     -2.437  0.3227E-01  0.3315E-01
     -2.337  0.2531E-01  0.3566E-01
     -2.238  0.2260E-01  0.3791E-01
     -2.138  0.2740E-01  0.4064E-01
     -2.039  0.3248E-01  0.4388E-01
     -1.939  0.3039E-01  0.4690E-01
     -1.840  0.2474E-01  0.4936E-01
     -1.740  0.2202E-01  0.5156E-01
     -1.641  0.2055E-01  0.5360E-01
     -1.541  0.1692E-01  0.5529E-01
     -1.441  0.1367E-01  0.5665E-01
     -1.342  0.1365E-01  0.5801E-01
     -1.242  0.1789E-01  0.5979E-01
     -1.143  0.2647E-01  0.6242E-01
     -1.043  0.3344E-01  0.6575E-01
     -0.944  0.3291E-01  0.6903E-01
     -0.844  0.3053E-01  0.7207E-01
     -0.745  0.3494E-01  0.7554E-01
     -0.645  0.4390E-01  0.7991E-01
     -0.546  0.4953E-01  0.8485E-01
     -0.446  0.4936E-01  0.8976E-01
     -0.346  0.4516E-01  0.9425E-01
     -0.247  0.3728E-01  0.9797E-01
     -0.147  0.2565E-01  0.1005E+00
     -0.048  0.1536E-01  0.1020E+00
      0.052  0.1569E-01  0.1036E+00
      0.151  0.3013E-01  0.1066E+00
      0.251  0.4723E-01  0.1113E+00
      0.350  0.4856E-01  0.1161E+00
      0.450  0.3355E-01  0.1195E+00
      0.549  0.2083E-01  0.1216E+00
      0.649  0.2180E-01  0.1237E+00
      0.749  0.3089E-01  0.1268E+00
      0.848  0.3821E-01  0.1306E+00
      0.948  0.4092E-01  0.1347E+00
      1.047  0.4458E-01  0.1391E+00
      1.147  0.5366E-01  0.1445E+00
      1.246  0.6058E-01  0.1505E+00
      1.346  0.5463E-01  0.1559E+00
      1.445  0.3942E-01  0.1599E+00
      1.545  0.2821E-01  0.1627E+00
      1.645  0.2795E-01  0.1654E+00
      1.744  0.3602E-01  0.1690E+00
      1.844  0.4572E-01  0.1736E+00
      1.943  0.5015E-01  0.1786E+00
      2.043  0.4730E-01  0.1833E+00
      2.142  0.4047E-01  0.1873E+00
      2.242  0.3228E-01  0.1905E+00
      2.341  0.2520E-01  0.1930E+00
      2.441  0.2216E-01  0.1952E+00
      2.540  0.2295E-01  0.1975E+00
      2.640  0.2484E-01  0.2000E+00
      2.740  0.2449E-01  0.2024E+00
      2.839  0.2028E-01  0.2045E+00
      2.939  0.1862E-01  0.2063E+00
      3.038  0.3061E-01  0.2094E+00
      3.138  0.5582E-01  0.2149E+00
      3.237  0.7624E-01  0.2225E+00
      3.337  0.7702E-01  0.2302E+00
      3.436  0.6359E-01  0.2365E+00
      3.536  0.4795E-01  0.2413E+00
      3.635  0.3684E-01  0.2449E+00
      3.735  0.3634E-01  0.2486E+00
      3.835  0.4762E-01  0.2533E+00
      3.934  0.6039E-01  0.2593E+00
      4.034  0.6211E-01  0.2655E+00
      4.133  0.4957E-01  0.2704E+00
      4.233  0.3194E-01  0.2736E+00
      4.332  0.2195E-01  0.2758E+00
      4.432  0.2331E-01  0.2781E+00
      4.531  0.3258E-01  0.2814E+00
      4.631  0.4353E-01  0.2857E+00
      4.731  0.4858E-01  0.2905E+00
      4.830  0.4944E-01  0.2954E+00
      4.930  0.5569E-01  0.3010E+00
      5.029  0.6323E-01  0.3073E+00
      5.129  0.5802E-01  0.3131E+00
      5.228  0.4377E-01  0.3174E+00
      5.328  0.3784E-01  0.3212E+00
      5.427  0.4362E-01  0.3255E+00
      5.527  0.4943E-01  0.3304E+00
      5.626  0.4683E-01  0.3351E+00
      5.726  0.3892E-01  0.3390E+00
      5.826  0.3418E-01  0.3424E+00
      5.925  0.3636E-01  0.3460E+00
      6.025  0.4502E-01  0.3505E+00
      6.124  0.6008E-01  0.3565E+00
      6.224  0.7871E-01  0.3643E+00
      6.323  0.9283E-01  0.3735E+00
      6.423  0.9396E-01  0.3829E+00
      6.522  0.8479E-01  0.3913E+00
      6.622  0.7683E-01  0.3990E+00
      6.721  0.7287E-01  0.4062E+00
      6.821  0.6536E-01  0.4127E+00
      6.921  0.5389E-01  0.4181E+00
      7.020  0.4845E-01  0.4229E+00
      7.120  0.5260E-01  0.4282E+00
      7.219  0.6063E-01  0.4342E+00
      7.319  0.6754E-01  0.4409E+00
      7.418  0.6944E-01  0.4478E+00
      7.518  0.6300E-01  0.4541E+00
      7.617  0.5210E-01  0.4593E+00
      7.717  0.4710E-01  0.4640E+00
      7.817  0.5058E-01  0.4690E+00
      7.916  0.5552E-01  0.4746E+00
      8.016  0.5968E-01  0.4805E+00
      8.115  0.6553E-01  0.4870E+00
      8.215  0.6934E-01  0.4939E+00
      8.314  0.6532E-01  0.5004E+00
      8.414  0.5656E-01  0.5061E+00
      8.513  0.4992E-01  0.5110E+00
      8.613  0.4795E-01  0.5158E+00
      8.712  0.5109E-01  0.5209E+00
      8.812  0.5480E-01  0.5263E+00
      8.912  0.4938E-01  0.5313E+00
      9.011  0.3635E-01  0.5349E+00
      9.111  0.3097E-01  0.5380E+00
      9.210  0.3995E-01  0.5419E+00
      9.310  0.5165E-01  0.5471E+00
      9.409  0.5148E-01  0.5522E+00
      9.509  0.3778E-01  0.5560E+00
      9.608  0.2022E-01  0.5580E+00
      9.708  0.7908E-02  0.5588E+00
      9.807  0.3291E-02  0.5591E+00
      9.907  0.6187E-02  0.5597E+00
     10.007  0.1790E-01  0.5615E+00
     10.106  0.3645E-01  0.5651E+00
     10.206  0.5328E-01  0.5704E+00
     10.305  0.6458E-01  0.5768E+00
     10.405  0.7623E-01  0.5844E+00
     10.504  0.9007E-01  0.5934E+00
     10.604  0.9655E-01  0.6030E+00
     10.703  0.8737E-01  0.6117E+00
     10.803  0.6968E-01  0.6186E+00
     10.903  0.5844E-01  0.6245E+00
     11.002  0.6184E-01  0.6306E+00
     11.102  0.7454E-01  0.6380E+00
     11.201  0.8139E-01  0.6461E+00
     11.301  0.7747E-01  0.6539E+00
     11.400  0.7350E-01  0.6612E+00
     11.500  0.7210E-01  0.6683E+00
     11.599  0.6463E-01  0.6748E+00
     11.699  0.5260E-01  0.6800E+00
     11.798  0.4385E-01  0.6844E+00
     11.898  0.3902E-01  0.6883E+00
     11.998  0.3703E-01  0.6920E+00
     12.097  0.3998E-01  0.6959E+00
     12.197  0.4690E-01  0.7006E+00
     12.296  0.5335E-01  0.7059E+00
     12.396  0.6051E-01  0.7119E+00
     12.495  0.7241E-01  0.7191E+00
     12.595  0.8197E-01  0.7273E+00
     12.694  0.7892E-01  0.7352E+00
     12.794  0.6688E-01  0.7418E+00
     12.893  0.5594E-01  0.7474E+00
     12.993  0.5445E-01  0.7528E+00
     13.093  0.6459E-01  0.7592E+00
     13.192  0.7145E-01  0.7664E+00
     13.292  0.6201E-01  0.7725E+00
     13.391  0.5097E-01  0.7776E+00
     13.491  0.5526E-01  0.7831E+00
     13.590  0.6449E-01  0.7895E+00
     13.690  0.6411E-01  0.7959E+00
     13.789  0.6169E-01  0.8020E+00
     13.889  0.6773E-01  0.8088E+00
     13.988  0.7570E-01  0.8163E+00
     14.088  0.7699E-01  0.8240E+00
     14.188  0.7529E-01  0.8315E+00
     14.287  0.7828E-01  0.8393E+00
     14.387  0.8715E-01  0.8479E+00
     14.486  0.9645E-01  0.8575E+00
     14.586  0.9775E-01  0.8673E+00
     14.685  0.8892E-01  0.8761E+00
     14.785  0.8068E-01  0.8842E+00
     14.884  0.8227E-01  0.8924E+00
     14.984  0.8518E-01  0.9008E+00
     15.084  0.7624E-01  0.9084E+00
     15.183  0.5831E-01  0.9142E+00
     15.283  0.4503E-01  0.9187E+00
     15.382  0.4507E-01  0.9232E+00
     15.482  0.5254E-01  0.9284E+00
     15.581  0.5184E-01  0.9336E+00
     15.681  0.3929E-01  0.9375E+00
     15.780  0.2715E-01  0.9402E+00
     15.880  0.2535E-01  0.9427E+00
     15.979  0.3590E-01  0.9463E+00
     16.079  0.5703E-01  0.9520E+00
     16.179  0.8058E-01  0.9600E+00
     16.278  0.9325E-01  0.9693E+00
     16.378  0.8808E-01  0.9781E+00
     16.477  0.7061E-01  0.9851E+00
     16.577  0.5145E-01  0.9902E+00
     16.676  0.3707E-01  0.9939E+00
     16.776  0.2808E-01  0.9967E+00
     16.875  0.2290E-01  0.9990E+00
     16.975  0.2054E-01  0.1001E+01
     17.074  0.1969E-01  0.1003E+01
     17.174  0.1839E-01  0.1005E+01
     17.274  0.1744E-01  0.1007E+01
     17.373  0.1971E-01  0.1009E+01
     17.473  0.2496E-01  0.1011E+01
     17.572  0.3320E-01  0.1014E+01
     17.672  0.4773E-01  0.1019E+01
     17.771  0.6611E-01  0.1026E+01
     17.871  0.7612E-01  0.1033E+01
     17.970  0.6807E-01  0.1040E+01
     18.070  0.4683E-01  0.1045E+01
     18.170  0.2536E-01  0.1047E+01
     18.269  0.1111E-01  0.1048E+01
     18.369  0.3924E-02  0.1049E+01
     18.468  0.1190E-02  0.1049E+01
     18.568  0.1120E-02  0.1049E+01
     18.667  0.3812E-02  0.1049E+01
     18.767  0.9825E-02  0.1050E+01
     18.866  0.1623E-01  0.1052E+01
     18.966  0.1759E-01  0.1054E+01
     19.065  0.1392E-01  0.1055E+01
     19.165  0.1082E-01  0.1056E+01
     19.265  0.1030E-01  0.1057E+01
     19.364  0.9153E-02  0.1058E+01
     19.464  0.5786E-02  0.1059E+01
     19.563  0.2502E-02  0.1059E+01
     19.663  0.1460E-02  0.1059E+01
     19.762  0.3074E-02  0.1059E+01
     19.862  0.6431E-02  0.1060E+01
     19.961  0.8683E-02  0.1061E+01
     20.061  0.7700E-02  0.1062E+01
     20.160  0.5525E-02  0.1062E+01
     20.260  0.4976E-02  0.1063E+01
     20.360  0.5598E-02  0.1063E+01
     20.459  0.5942E-02  0.1064E+01
     20.559  0.5651E-02  0.1064E+01
     20.658  0.4407E-02  0.1065E+01
     20.758  0.2450E-02  0.1065E+01
     20.857  0.9282E-03  0.1065E+01
     20.957  0.4731E-03  0.1065E+01
     21.056  0.1110E-02  0.1065E+01
     21.156  0.2683E-02  0.1066E+01
     21.256  0.4130E-02  0.1066E+01
     21.355  0.3955E-02  0.1066E+01
     21.455  0.2355E-02  0.1067E+01
     21.554  0.8709E-03  0.1067E+01
     21.654  0.1999E-03  0.1067E+01
     21.753  0.2846E-04  0.1067E+01
     21.853  0.2507E-05  0.1067E+01
     21.952  0.1365E-06  0.1067E+01
     22.052  0.4588E-08  0.1067E+01
     22.151  0.9503E-10  0.1067E+01
     22.251  0.1211E-11  0.1067E+01
     22.351  0.9489E-14  0.1067E+01
     22.450  0.4509E-16  0.1067E+01
     22.550  0.0000E+00  0.1067E+01
     22.649  0.0000E+00  0.1067E+01
     22.749  0.0000E+00  0.1067E+01
     22.848  0.0000E+00  0.1067E+01
     22.948  0.0000E+00  0.1067E+01
     23.047  0.0000E+00  0.1067E+01
     23.147  0.0000E+00  0.1067E+01
     23.246  0.0000E+00  0.1067E+01
