    2    2   15    1
  0.1529437E+02  0.3691622E-09  0.3691622E-09  0.3691622E-09  0.5000000E-15
  1.000000000000000E-004
  CAR 
 unknown system                          
      8     40      8
 
  0.0000000E+00  0.0000000E+00  0.0000000E+00  0.2915452E-02
    1       -4.613670   1.000000
    2        6.203352   1.000000
    3        6.302988   1.000000
    4        6.302999   1.000000
    5       10.599972   0.000000
    6       16.950403   0.000000
    7       17.376902   0.000000
    8       17.376918   0.000000
 
  0.1428571E+00 -0.1404355E-16  0.1404355E-16  0.2332362E-01
    1       -4.037965   1.000000
    2        5.167160   1.000000
    3        6.241880   1.000000
    4        8.330908   0.999999
    5       11.732773   0.000000
    6       14.585259   0.000000
    7       14.961264   0.000000
    8       16.641615   0.000000
 
  0.2857143E+00 -0.2600542E-16  0.2600542E-16  0.2332362E-01
    1       -2.322292   1.000000
    2        5.147370   1.000000
    3        6.544400   1.000000
    4        8.976504   0.592441
    5       11.238072   0.000000
    6       12.171976   0.000000
    7       13.569119   0.000000
    8       14.427717   0.000000
 
  0.4285714E+00 -0.1733103E-16  0.1733103E-16  0.2332362E-01
    1        0.490058   1.000000
    2        4.364063   1.000000
    3        6.232553   1.000000
    4        7.471507   1.000000
    5        8.459936   0.999949
    6       10.976235   0.000000
    7       13.592845   0.000000
    8       14.539494   0.000000
 
  0.1428571E+00  0.1428571E+00  0.2808709E-16  0.2332362E-01
    1       -2.562355   1.000000
    2        5.438651   1.000000
    3        7.946460   1.000000
    4        9.091069   0.282217
    5       10.696868   0.000000
    6       11.167092   0.000000
    7       13.663861   0.000000
    8       14.443770   0.000000
 
  0.2857143E+00  0.1428571E+00  0.4508661E-16  0.4664723E-01
    1        0.022421   1.000000
    2        5.458003   1.000000
    3        6.328465   1.000000
    4        6.895144   1.000000
    5        9.436941   0.001256
    6       11.578330   0.000000
    7       12.379976   0.000000
    8       13.694019   0.000000
 
  0.4285714E+00  0.1428571E+00  0.7177282E-16  0.4664723E-01
    1        1.412747   1.000000
    2        3.658084   1.000000
    3        4.652419   1.000000
    4        7.539338   1.000000
    5        8.854717   0.863240
    6       11.551152   0.000000
    7       12.670886   0.000000
    8       16.158673   0.000000
 
 -0.4285714E+00  0.1428571E+00 -0.1801182E-16  0.4664723E-01
    1       -1.604680   1.000000
    2        3.223406   1.000000
    3        6.727231   1.000000
    4        8.293877   1.000000
    5       10.694432   0.000000
    6       12.569576   0.000000
    7       13.301390   0.000000
    8       15.319074   0.000000
 
 -0.2857143E+00  0.1428571E+00 -0.1576439E-16  0.4664723E-01
    1       -3.553798   1.000000
    2        2.963313   1.000000
    3        6.399341   1.000000
    4        9.689628   0.000001
    5       12.482099   0.000000
    6       13.802571   0.000000
    7       14.356270   0.000000
    8       16.037335   0.000000
 
 -0.1428571E+00  0.1428571E+00 -0.3929902E-17  0.1166181E-01
    1       -4.370741   1.000000
    2        3.755370   1.000000
    3        6.529227   1.000000
    4        7.945212   1.000000
    5       12.030485   0.000000
    6       14.355884   0.000000
    7       15.910508   0.000000
    8       19.447395   0.000000
 
  0.2857143E+00  0.2857143E+00  0.5201085E-16  0.2332362E-01
    1        2.651549   1.000000
    2        2.819737   1.000000
    3        3.648552   1.000000
    4        7.678855   1.000000
    5        9.339071   0.009905
    6       10.494660   0.000000
    7       14.659491   0.000000
    8       15.318750   0.000000
 
  0.4285714E+00  0.2857143E+00  0.7869706E-16  0.4664723E-01
    1       -0.419204   1.000000
    2        1.211025   1.000000
    3        7.597724   1.000000
    4        8.020409   1.000000
    5        9.291097   0.023258
    6       11.815115   0.000000
    7       14.412781   0.000000
    8       15.965338   0.000000
 
 -0.4285714E+00  0.2857143E+00 -0.2288370E-16  0.4664723E-01
    1       -2.590740   1.000000
    2        0.712041   1.000000
    3        7.280428   1.000000
    4       10.358931   0.000000
    5       10.789155   0.000000
    6       13.208255   0.000000
    7       14.788840   0.000000
    8       15.225386   0.000000
 
 -0.2857143E+00  0.2857143E+00 -0.7859804E-17  0.1166181E-01
    1       -3.643787   1.000000
    2        1.313873   1.000000
    3        7.207226   1.000000
    4        9.008134   0.504057
    5       11.933002   0.000000
    6       13.789267   0.000000
    7       15.298642   0.000000
    8       19.045735   0.000000
 
  0.4285714E+00  0.4285714E+00  0.1053833E-15  0.2332362E-01
    1       -1.161672   1.000000
    2       -1.160007   1.000000
    3        8.601376   0.998052
    4        8.643632   0.995167
    5       11.751646   0.000000
    6       12.318725   0.000000
    7       14.178128   0.000000
    8       15.079472   0.000000
 
 -0.4285714E+00  0.4285714E+00  0.4248060E-17  0.1166181E-01
    1       -2.440945   1.000000
    2       -0.778041   1.000000
    3        8.337542   0.999999
    4        9.915384   0.000000
    5       10.253046   0.000000
    6       11.852085   0.000000
    7       18.810009   0.000000
    8       18.867428   0.000000
 
  0.1428571E+00  0.1428571E+00  0.1428571E+00  0.2332362E-01
    1       -1.842562   1.000000
    2        3.054064   1.000000
    3        8.367359   0.999997
    4        9.210582   0.077607
    5       10.290211   0.000000
    6       11.191514   0.000000
    7       14.124550   0.000000
    8       14.835827   0.000000
 
  0.2857143E+00  0.1428571E+00  0.1428571E+00  0.4664723E-01
    1        0.960889   1.000000
    2        4.114924   1.000000
    3        4.915451   1.000000
    4        6.351796   1.000000
    5       10.626236   0.000000
    6       13.202925   0.000000
    7       13.914209   0.000000
    8       14.247745   0.000000
 
 -0.1428571E+00  0.1428571E+00  0.1428571E+00  0.1166181E-01
    1       -4.128446   1.000000
    2        3.453961   1.000000
    3        4.930806   1.000000
    4        9.847577   0.000000
    5       12.253803   0.000000
    6       12.893677   0.000000
    7       17.778267   0.000000
    8       18.081471   0.000000
 
  0.2857143E+00  0.2857143E+00  0.1428571E+00  0.2332362E-01
    1        2.331063   1.000000
    2        2.361324   1.000000
    3        4.663467   1.000000
    4        6.157070   1.000000
    5       11.702607   0.000000
    6       12.527213   0.000000
    7       14.490571   0.000000
    8       15.477000   0.000000
 
  0.4285714E+00  0.2857143E+00  0.1428571E+00  0.2332362E-01
    1       -0.651216   1.000000
    2        0.993130   1.000000
    3        8.703779   0.984702
    4        8.924215   0.726934
    5       10.686524   0.000000
    6       11.710518   0.000000
    7       12.578420   0.000000
    8       13.622760   0.000000
 
 -0.2857143E+00  0.2857143E+00  0.1428571E+00  0.2332362E-01
    1       -3.403973   1.000000
    2        1.484846   1.000000
    3        5.128605   1.000000
    4        9.844850   0.000000
    5       11.360450   0.000000
    6       15.699809   0.000000
    7       16.022306   0.000000
    8       18.632428   0.000000
 
 -0.1428571E+00  0.2857143E+00  0.1428571E+00  0.2332362E-01
    1       -3.072969   1.000000
    2        2.820878   1.000000
    3        4.451400   1.000000
    4       10.107996   0.000000
    5       11.728337   0.000000
    6       13.767243   0.000000
    7       15.304686   0.000000
    8       16.969275   0.000000
 
 -0.4285714E+00  0.4285714E+00  0.1428571E+00  0.2332362E-01
    1       -2.206881   1.000000
    2       -0.557690   1.000000
    3        6.226411   1.000000
    4        7.817579   1.000000
    5       12.663018   0.000000
    6       14.214698   0.000000
    7       18.087121   0.000000
    8       18.226863   0.000000
 
 -0.2857143E+00  0.4285714E+00  0.1428571E+00  0.4664723E-01
    1       -2.118234   1.000000
    2        1.100144   1.000000
    3        4.805423   1.000000
    4        7.913172   1.000000
    5       11.944925   0.000000
    6       14.545332   0.000000
    7       16.840653   0.000000
    8       17.459457   0.000000
 
 -0.1428571E+00  0.4285714E+00  0.1428571E+00  0.2332362E-01
    1       -0.896146   1.000000
    2        3.288068   1.000000
    3        4.967432   1.000000
    4        7.449480   1.000000
    5        8.989426   0.556639
    6       13.417617   0.000000
    7       15.011325   0.000000
    8       16.070023   0.000000
 
 -0.4285714E+00 -0.4285714E+00  0.1428571E+00  0.2332362E-01
    1       -0.710117   1.000000
    2       -0.705021   1.000000
    3        6.111498   1.000000
    4        6.115534   1.000000
    5       11.852380   0.000000
    6       15.518663   0.000000
    7       16.276774   0.000000
    8       16.807213   0.000000
 
 -0.2857143E+00 -0.4285714E+00  0.1428571E+00  0.4664723E-01
    1        0.266419   1.000000
    2        1.824519   1.000000
    3        5.501218   1.000000
    4        6.826931   1.000000
    5        7.265495   1.000000
    6       13.560000   0.000000
    7       16.634320   0.000000
    8       17.601508   0.000000
 
 -0.1428571E+00 -0.4285714E+00  0.1428571E+00  0.2332362E-01
    1        2.251725   1.000000
    2        3.069478   1.000000
    3        4.939402   1.000000
    4        6.452973   1.000000
    5        8.578334   0.998853
    6       11.152899   0.000000
    7       12.353337   0.000000
    8       16.503204   0.000000
 
 -0.2857143E+00 -0.2857143E+00  0.1428571E+00  0.2332362E-01
    1        2.615494   1.000000
    2        3.667881   1.000000
    3        3.833573   1.000000
    4        7.108562   1.000000
    5        7.258377   1.000000
    6       11.196353   0.000000
    7       13.938559   0.000000
    8       14.787604   0.000000
 
 -0.1428571E+00 -0.2857143E+00  0.1428571E+00  0.2332362E-01
    1       -0.450552   1.000000
    2        6.509215   1.000000
    3        7.359587   1.000000
    4        8.229594   1.000000
    5        8.311994   1.000000
    6       10.758336   0.000000
    7       11.195334   0.000000
    8       12.500790   0.000000
 
 -0.1428571E+00 -0.1428571E+00  0.1428571E+00  0.5830904E-02
    1       -2.803260   1.000000
    2        7.774363   1.000000
    3        7.774374   1.000000
    4        7.780055   1.000000
    5       11.100243   0.000000
    6       11.529713   0.000000
    7       12.406214   0.000000
    8       13.772231   0.000000
 
 -0.2857143E+00  0.2857143E+00  0.2857143E+00  0.1166181E-01
    1       -2.688742   1.000000
    2        1.545243   1.000000
    3        3.282021   1.000000
    4        7.414163   1.000000
    5       13.988226   0.000000
    6       17.121327   0.000000
    7       17.336023   0.000000
    8       18.118244   0.000000
 
 -0.4285714E+00  0.4285714E+00  0.2857143E+00  0.2332362E-01
    1       -1.514239   1.000000
    2        0.061603   1.000000
    3        3.831001   1.000000
    4        5.374818   1.000000
    5       15.510935   0.000000
    6       16.456275   0.000000
    7       17.988938   0.000000
    8       18.554013   0.000000
 
 -0.2857143E+00  0.4285714E+00  0.2857143E+00  0.2332362E-01
    1       -1.186666   1.000000
    2        1.385856   1.000000
    3        3.160844   1.000000
    4        5.683015   1.000000
    5       11.521748   0.000000
    6       17.239479   0.000000
    7       18.467437   0.000000
    8       19.205461   0.000000
 
 -0.4285714E+00 -0.4285714E+00  0.2857143E+00  0.2332362E-01
    1        0.143106   1.000000
    2        0.152624   1.000000
    3        3.921905   1.000000
    4        3.925951   1.000000
    5       11.341561   0.000000
    6       18.662977   0.000000
    7       18.787625   0.000000
    8       19.449992   0.000000
 
 -0.2857143E+00 -0.4285714E+00  0.2857143E+00  0.2332362E-01
    1        1.351111   1.000000
    2        2.340378   1.000000
    3        4.105660   1.000000
    4        5.066651   1.000000
    5        6.644002   1.000000
    6       15.401889   0.000000
    7       16.825586   0.000000
    8       18.148619   0.000000
 
 -0.2857143E+00 -0.2857143E+00  0.2857143E+00  0.5830904E-02
    1        2.441684   1.000000
    2        4.420796   1.000000
    3        4.552835   1.000000
    4        6.059245   1.000000
    5        6.059248   1.000000
    6       13.019359   0.000000
    7       13.695249   0.000000
    8       13.695268   0.000000
 
 -0.4285714E+00  0.4285714E+00  0.4285714E+00  0.1166181E-01
    1       -0.418240   1.000000
    2        0.578724   1.000000
    3        2.398771   1.000000
    4        3.383165   1.000000
    5       16.308759   0.000000
    6       16.446963   0.000000
    7       19.719723   0.000000
    8       20.644518   0.000000
 
 -0.4285714E+00 -0.4285714E+00  0.4285714E+00  0.5830904E-02
    1        0.895763   1.000000
    2        0.910616   1.000000
    3        2.716607   1.000000
    4        2.716608   1.000000
    5       11.149630   0.000000
    6       19.779782   0.000000
    7       20.724313   0.000000
    8       20.724317   0.000000
