    2    2   15    1
  0.1529437E+02  0.3691622E-09  0.3691622E-09  0.3691622E-09  0.5000000E-15
  1.000000000000000E-004
  CAR 
 unknown system                          
      8     40      8
 
  0.0000000E+00  0.0000000E+00  0.0000000E+00  0.2915452E-02
    1       -4.613591   1.000000
    2        6.206239   1.000000
    3        6.302459   1.000000
    4        6.302472   1.000000
    5       10.597352   0.000000
    6       16.948845   0.000000
    7       17.376800   0.000000
    8       17.376818   0.000000
 
  0.1428571E+00 -0.1404355E-16  0.1404355E-16  0.2332362E-01
    1       -4.037893   1.000000
    2        5.168366   1.000000
    3        6.241097   1.000000
    4        8.332054   0.999999
    5       11.730335   0.000000
    6       14.584430   0.000000
    7       14.962640   0.000000
    8       16.642300   0.000000
 
  0.2857143E+00 -0.2600542E-16  0.2600542E-16  0.2332362E-01
    1       -2.322251   1.000000
    2        5.148449   1.000000
    3        6.543250   1.000000
    4        8.977195   0.591888
    5       11.239545   0.000000
    6       12.171927   0.000000
    7       13.567379   0.000000
    8       14.427766   0.000000
 
  0.4285714E+00 -0.1733103E-16  0.1733103E-16  0.2332362E-01
    1        0.489968   1.000000
    2        4.364009   1.000000
    3        6.234442   1.000000
    4        7.469844   1.000000
    5        8.460831   0.999949
    6       10.975787   0.000000
    7       13.592613   0.000000
    8       14.538986   0.000000
 
  0.1428571E+00  0.1428571E+00  0.2808709E-16  0.2332362E-01
    1       -2.562322   1.000000
    2        5.439251   1.000000
    3        7.945525   1.000000
    4        9.092601   0.279732
    5       10.698113   0.000000
    6       11.166491   0.000000
    7       13.661785   0.000000
    8       14.443393   0.000000
 
  0.2857143E+00  0.1428571E+00  0.4508661E-16  0.4664723E-01
    1        0.022340   1.000000
    2        5.457846   1.000000
    3        6.329409   1.000000
    4        6.895742   1.000000
    5        9.436288   0.001290
    6       11.578341   0.000000
    7       12.379470   0.000000
    8       13.694769   0.000000
 
  0.4285714E+00  0.1428571E+00  0.7177282E-16  0.4664723E-01
    1        1.412608   1.000000
    2        3.657824   1.000000
    3        4.653566   1.000000
    4        7.539139   1.000000
    5        8.854844   0.863801
    6       11.550831   0.000000
    7       12.670902   0.000000
    8       16.158195   0.000000
 
 -0.4285714E+00  0.1428571E+00 -0.1801182E-16  0.4664723E-01
    1       -1.604612   1.000000
    2        3.223867   1.000000
    3        6.726489   1.000000
    4        8.294414   1.000000
    5       10.694791   0.000000
    6       12.570112   0.000000
    7       13.301244   0.000000
    8       15.318539   0.000000
 
 -0.2857143E+00  0.1428571E+00 -0.1576439E-16  0.4664723E-01
    1       -3.553708   1.000000
    2        2.963894   1.000000
    3        6.398843   1.000000
    4        9.690474   0.000001
    5       12.481385   0.000000
    6       13.801895   0.000000
    7       14.356281   0.000000
    8       16.037379   0.000000
 
 -0.1428571E+00  0.1428571E+00 -0.3929902E-17  0.1166181E-01
    1       -4.370653   1.000000
    2        3.756080   1.000000
    3        6.528693   1.000000
    4        7.946285   1.000000
    5       12.028438   0.000000
    6       14.355080   0.000000
    7       15.910945   0.000000
    8       19.447917   0.000000
 
  0.2857143E+00  0.2857143E+00  0.5201085E-16  0.2332362E-01
    1        2.650600   1.000000
    2        2.819915   1.000000
    3        3.649866   1.000000
    4        7.679154   1.000000
    5        9.338617   0.010083
    6       10.494596   0.000000
    7       14.659682   0.000000
    8       15.318860   0.000000
 
  0.4285714E+00  0.2857143E+00  0.7869706E-16  0.4664723E-01
    1       -0.419084   1.000000
    2        1.211248   1.000000
    3        7.596756   1.000000
    4        8.021066   1.000000
    5        9.291289   0.023374
    6       11.815582   0.000000
    7       14.412792   0.000000
    8       15.965329   0.000000
 
 -0.4285714E+00  0.2857143E+00 -0.2288370E-16  0.4664723E-01
    1       -2.590612   1.000000
    2        0.712362   1.000000
    3        7.279980   1.000000
    4       10.358440   0.000000
    5       10.789729   0.000000
    6       13.208951   0.000000
    7       14.788712   0.000000
    8       15.225662   0.000000
 
 -0.2857143E+00  0.2857143E+00 -0.7859804E-17  0.1166181E-01
    1       -3.643672   1.000000
    2        1.314279   1.000000
    3        7.206674   1.000000
    4        9.008832   0.503471
    5       11.932310   0.000000
    6       13.789802   0.000000
    7       15.297266   0.000000
    8       19.046219   0.000000
 
  0.4285714E+00  0.4285714E+00  0.1053833E-15  0.2332362E-01
    1       -1.161481   1.000000
    2       -1.159804   1.000000
    3        8.601006   0.998089
    4        8.643059   0.995272
    5       11.752481   0.000000
    6       12.319058   0.000000
    7       14.178080   0.000000
    8       15.079796   0.000000
 
 -0.4285714E+00  0.4285714E+00  0.4248060E-17  0.1166181E-01
    1       -2.440779   1.000000
    2       -0.777788   1.000000
    3        8.336960   0.999999
    4        9.914754   0.000000
    5       10.253613   0.000000
    6       11.852623   0.000000
    7       18.810511   0.000000
    8       18.868014   0.000000
 
  0.1428571E+00  0.1428571E+00  0.1428571E+00  0.2332362E-01
    1       -1.842506   1.000000
    2        3.054381   1.000000
    3        8.366400   0.999997
    4        9.211552   0.077115
    5       10.291391   0.000000
    6       11.190946   0.000000
    7       14.124538   0.000000
    8       14.835545   0.000000
 
  0.2857143E+00  0.1428571E+00  0.1428571E+00  0.4664723E-01
    1        0.960801   1.000000
    2        4.114479   1.000000
    3        4.916391   1.000000
    4        6.352341   1.000000
    5       10.625747   0.000000
    6       13.202959   0.000000
    7       13.913978   0.000000
    8       14.247312   0.000000
 
 -0.1428571E+00  0.1428571E+00  0.1428571E+00  0.1166181E-01
    1       -4.128347   1.000000
    2        3.455157   1.000000
    3        4.929825   1.000000
    4        9.848725   0.000000
    5       12.253416   0.000000
    6       12.891503   0.000000
    7       17.982433   0.000000
    8       18.082098   0.000000
 
  0.2857143E+00  0.2857143E+00  0.1428571E+00  0.2332362E-01
    1        2.330821   1.000000
    2        2.361311   1.000000
    3        4.664086   1.000000
    4        6.157558   1.000000
    5       11.702140   0.000000
    6       12.526951   0.000000
    7       14.490336   0.000000
    8       15.476991   0.000000
 
  0.4285714E+00  0.2857143E+00  0.1428571E+00  0.2332362E-01
    1       -0.651115   1.000000
    2        0.993308   1.000000
    3        8.703316   0.984959
    4        8.924441   0.727555
    5       10.687266   0.000000
    6       11.710618   0.000000
    7       12.578301   0.000000
    8       13.622581   0.000000
 
 -0.2857143E+00  0.2857143E+00  0.1428571E+00  0.2332362E-01
    1       -3.403844   1.000000
    2        1.485409   1.000000
    3        5.128085   1.000000
    4        9.844514   0.000000
    5       11.361174   0.000000
    6       15.698203   0.000000
    7       16.022572   0.000000
    8       18.632837   0.000000
 
 -0.1428571E+00  0.2857143E+00  0.1428571E+00  0.2332362E-01
    1       -3.072857   1.000000
    2        2.822041   1.000000
    3        4.450263   1.000000
    4       10.107576   0.000000
    5       11.729426   0.000000
    6       13.767965   0.000000
    7       15.302531   0.000000
    8       16.970219   0.000000
 
 -0.4285714E+00  0.4285714E+00  0.1428571E+00  0.2332362E-01
    1       -2.206691   1.000000
    2       -0.557386   1.000000
    3        6.226041   1.000000
    4        7.817246   1.000000
    5       12.663434   0.000000
    6       14.215004   0.000000
    7       18.087180   0.000000
    8       18.227192   0.000000
 
 -0.2857143E+00  0.4285714E+00  0.1428571E+00  0.4664723E-01
    1       -2.118071   1.000000
    2        1.100672   1.000000
    3        4.804826   1.000000
    4        7.912803   1.000000
    5       11.945596   0.000000
    6       14.545845   0.000000
    7       16.840835   0.000000
    8       17.459663   0.000000
 
 -0.1428571E+00  0.4285714E+00  0.1428571E+00  0.2332362E-01
    1       -0.896039   1.000000
    2        3.289100   1.000000
    3        4.966150   1.000000
    4        7.449737   1.000000
    5        8.989491   0.557826
    6       13.418924   0.000000
    7       15.010230   0.000000
    8       16.070422   0.000000
 
 -0.4285714E+00 -0.4285714E+00  0.1428571E+00  0.2332362E-01
    1       -0.709864   1.000000
    2       -0.704734   1.000000
    3        6.111149   1.000000
    4        6.115063   1.000000
    5       11.852961   0.000000
    6       15.518911   0.000000
    7       16.276899   0.000000
    8       16.807803   0.000000
 
 -0.2857143E+00 -0.4285714E+00  0.1428571E+00  0.4664723E-01
    1        0.266615   1.000000
    2        1.824952   1.000000
    3        5.500421   1.000000
    4        6.826124   1.000000
    5        7.266558   1.000000
    6       13.560774   0.000000
    7       16.634079   0.000000
    8       17.601615   0.000000
 
 -0.1428571E+00 -0.4285714E+00  0.1428571E+00  0.2332362E-01
    1        2.251156   1.000000
    2        3.069941   1.000000
    3        4.941179   1.000000
    4        6.451453   1.000000
    5        8.578224   0.998869
    6       11.153810   0.000000
    7       12.352905   0.000000
    8       16.503946   0.000000
 
 -0.2857143E+00 -0.2857143E+00  0.1428571E+00  0.2332362E-01
    1        2.614470   1.000000
    2        3.668414   1.000000
    3        3.835164   1.000000
    4        7.107945   1.000000
    5        7.257724   1.000000
    6       11.197166   0.000000
    7       13.938732   0.000000
    8       14.788182   0.000000
 
 -0.1428571E+00 -0.2857143E+00  0.1428571E+00  0.2332362E-01
    1       -0.450633   1.000000
    2        6.509682   1.000000
    3        7.361559   1.000000
    4        8.227725   1.000000
    5        8.312120   1.000000
    6       10.758250   0.000000
    7       11.195522   0.000000
    8       12.501827   0.000000
 
 -0.1428571E+00 -0.1428571E+00  0.1428571E+00  0.5830904E-02
    1       -2.803234   1.000000
    2        7.773469   1.000000
    3        7.773481   1.000000
    4        7.783338   1.000000
    5       11.101638   0.000000
    6       11.529699   0.000000
    7       12.403568   0.000000
    8       13.771704   0.000000
 
 -0.2857143E+00  0.2857143E+00  0.2857143E+00  0.1166181E-01
    1       -2.688567   1.000000
    2        1.546414   1.000000
    3        3.280833   1.000000
    4        7.413844   1.000000
    5       13.989310   0.000000
    6       17.121847   0.000000
    7       17.334048   0.000000
    8       18.118637   0.000000
 
 -0.4285714E+00  0.4285714E+00  0.2857143E+00  0.2332362E-01
    1       -1.513963   1.000000
    2        0.062141   1.000000
    3        3.830391   1.000000
    4        5.374431   1.000000
    5       15.511651   0.000000
    6       16.456784   0.000000
    7       17.989133   0.000000
    8       18.554173   0.000000
 
 -0.2857143E+00  0.4285714E+00  0.2857143E+00  0.2332362E-01
    1       -1.186408   1.000000
    2        1.386998   1.000000
    3        3.159600   1.000000
    4        5.682595   1.000000
    5       11.522240   0.000000
    6       17.240698   0.000000
    7       18.468268   0.000000
    8       19.204223   0.000000
 
 -0.4285714E+00 -0.4285714E+00  0.2857143E+00  0.2332362E-01
    1        0.143587   1.000000
    2        0.153171   1.000000
    3        3.921225   1.000000
    4        3.925335   1.000000
    5       11.342010   0.000000
    6       18.664876   0.000000
    7       18.787138   0.000000
    8       19.450378   0.000000
 
 -0.2857143E+00 -0.4285714E+00  0.2857143E+00  0.2332362E-01
    1        1.351530   1.000000
    2        2.341393   1.000000
    3        4.104339   1.000000
    4        5.065844   1.000000
    5        6.644734   1.000000
    6       15.403307   0.000000
    7       16.825121   0.000000
    8       18.149036   0.000000
 
 -0.2857143E+00 -0.2857143E+00  0.2857143E+00  0.5830904E-02
    1        2.440969   1.000000
    2        4.422136   1.000000
    3        4.554955   1.000000
    4        6.057753   1.000000
    5        6.057756   1.000000
    6       13.021365   0.000000
    7       13.695413   0.000000
    8       13.695431   0.000000
 
 -0.4285714E+00  0.4285714E+00  0.4285714E+00  0.1166181E-01
    1       -0.417708   1.000000
    2        0.579880   1.000000
    3        2.397522   1.000000
    4        3.382528   1.000000
    5       16.309241   0.000000
    6       16.447385   0.000000
    7       19.720536   0.000000
    8       20.644838   0.000000
 
 -0.4285714E+00 -0.4285714E+00  0.4285714E+00  0.5830904E-02
    1        0.896836   1.000000
    2        0.911809   1.000000
    3        2.715338   1.000000
    4        2.715339   1.000000
    5       11.150045   0.000000
    6       19.781604   0.000000
    7       20.724135   0.000000
    8       20.724138   0.000000
