unknown system                          
           1
    -2.450000    2.450000    1.274000
     2.450000   -2.450000    1.274000
     2.450000    2.450000   -1.274000
   Si
   2
Direct configuration=     1
   0.25000000  0.75000000  0.50000000
   0.00000000  0.00000000  0.00000000
unknown system                          
           1
    -2.407116    2.407116    1.326701
     2.407116   -2.407116    1.326701
     2.407116    2.407116   -1.326701
   Si
   2
Direct configuration=     2
   0.25000000  0.75000000  0.50000000
   0.00000000  0.00000000  0.00000000
unknown system                          
           1
    -2.411300    2.411300    1.321559
     2.411300   -2.411300    1.321559
     2.411300    2.411300   -1.321559
   Si
   2
Direct configuration=     3
   0.25000000  0.75000000  0.50000000
   0.00000000  0.00000000  0.00000000
unknown system                          
           1
    -2.412833    2.412833    1.319675
     2.412833   -2.412833    1.319675
     2.412833    2.412833   -1.319675
   Si
   2
Direct configuration=     4
   0.25000000  0.75000000  0.50000000
   0.00000000  0.00000000  0.00000000
unknown system                          
           1
    -2.412165    2.412165    1.320496
     2.412165   -2.412165    1.320496
     2.412165    2.412165   -1.320496
   Si
   2
Direct configuration=     5
   0.25000000  0.75000000  0.50000000
   0.00000000  0.00000000  0.00000000
unknown system                          
           1
    -2.411733    2.411733    1.321027
     2.411733   -2.411733    1.321027
     2.411733    2.411733   -1.321027
   Si
   2
Direct configuration=     6
   0.25000000  0.75000000  0.50000000
   0.00000000  0.00000000  0.00000000
unknown system                          
           1
    -2.411517    2.411517    1.321293
     2.411517   -2.411517    1.321293
     2.411517    2.411517   -1.321293
   Si
   2
Direct configuration=     7
   0.25000000  0.75000000  0.50000000
   0.00000000  0.00000000  0.00000000
unknown system                          
           1
    -2.411408    2.411408    1.321426
     2.411408   -2.411408    1.321426
     2.411408    2.411408   -1.321426
   Si
   2
Direct configuration=     8
   0.25000000  0.75000000  0.50000000
   0.00000000  0.00000000  0.00000000
unknown system                          
           1
    -2.411354    2.411354    1.321492
     2.411354   -2.411354    1.321492
     2.411354    2.411354   -1.321492
   Si
   2
Direct configuration=     9
   0.25000000  0.75000000  0.50000000
   0.00000000  0.00000000  0.00000000
unknown system                          
           1
    -2.411327    2.411327    1.321526
     2.411327   -2.411327    1.321526
     2.411327    2.411327   -1.321526
   Si
   2
Direct configuration=    10
   0.25000000  0.75000000  0.50000000
   0.00000000  0.00000000  0.00000000
unknown system                          
           1
    -2.411314    2.411314    1.321542
     2.411314   -2.411314    1.321542
     2.411314    2.411314   -1.321542
   Si
   2
Direct configuration=    11
   0.25000000  0.75000000  0.50000000
   0.00000000  0.00000000  0.00000000
unknown system                          
           1
    -2.411307    2.411307    1.321551
     2.411307   -2.411307    1.321551
     2.411307    2.411307   -1.321551
   Si
   2
Direct configuration=    12
   0.25000000  0.75000000  0.50000000
   0.00000000  0.00000000  0.00000000
unknown system                          
           1
    -2.411304    2.411304    1.321555
     2.411304   -2.411304    1.321555
     2.411304    2.411304   -1.321555
   Si
   2
Direct configuration=    13
   0.25000000  0.75000000  0.50000000
   0.00000000  0.00000000  0.00000000
unknown system                          
           1
    -2.411302    2.411302    1.321557
     2.411302   -2.411302    1.321557
     2.411302    2.411302   -1.321557
   Si
   2
Direct configuration=    14
   0.25000000  0.75000000  0.50000000
   0.00000000  0.00000000  0.00000000
unknown system                          
           1
    -2.411301    2.411301    1.321558
     2.411301   -2.411301    1.321558
     2.411301    2.411301   -1.321558
   Si
   2
Direct configuration=    15
   0.25000000  0.75000000  0.50000000
   0.00000000  0.00000000  0.00000000
