unknown system                          
   1.00000000000000     
    -2.450000    2.450000    1.274000
     2.450000   -2.450000    1.274000
     2.450000    2.450000   -1.274000
   Si
     2
Direct
  0.250000  0.750000  0.500000
  0.000000  0.000000  0.000000
 
   24   24   24
 -5.5654     -3.5440      1.4902      7.0966      10.901      11.877      10.622      8.5874      6.7039      5.2460    
  4.2708      3.7294      3.5578      3.7294      4.2708      5.2459      6.7040      8.5875      10.622      11.877    
  10.901      7.0968      1.4901     -3.5443     -3.5443     -4.5789     -1.7870      3.3970      8.4854      11.424    
  11.641      10.034      8.0080      6.2364      4.9176      4.0710      3.6368      3.5578      3.8205      4.4630    
  5.5515      7.1193      9.0705      11.053      11.963      10.459      6.2800     0.79341      1.4901     -1.7872    
 -1.8590      1.2966      6.0238      10.041      11.795      11.193      9.3323      7.3772      5.7532      4.5913    
  3.8778      3.5491      3.5578      3.9035      4.6329      5.8091      7.4468      9.4177      11.311      11.979    
  10.287      6.2800      7.0968      3.3969      1.2965      1.9508      4.9810      8.7312      11.337      11.828    
  10.533      8.5759      6.7407      5.2886      4.2887      3.7037      3.4718      3.5577      3.9724      4.7663    
  5.9957      7.6568      9.5992      11.396      11.979      10.459      10.901      8.4855      6.0238      4.9810    
  6.0007      8.4669      10.928      12.061      11.459      9.7334      7.8175      6.1417      4.8718      4.0276    
  3.5585      3.4096      3.5576      4.0216      4.8515      6.0938      7.7291      9.5992      11.311      11.963    
  11.877      11.424      10.041      8.7312      8.4669      9.4858      11.113      12.244      12.113      10.768    
  8.9095      7.1099      5.6177      4.5261      3.8215      3.4498      3.3661      3.5575      4.0472      4.8808    
  6.0938      7.6568      9.4177      11.053      10.622      11.641      11.795      11.337      10.928      11.113    
  11.865      12.598      12.610      11.616      9.9451      8.1394      6.5030      5.1990      4.2683      3.6794    
  3.3826      3.3437      3.5575      4.0472      4.8515      5.9957      7.4468      9.0705      8.5875      10.034    
  11.193      11.828      12.061      12.244      12.598      12.979      12.972      12.244      10.851      9.1663    
  7.4917      6.0384      4.9079      4.1094      3.6071      3.3600      3.3437      3.5575      4.0216      4.7663    
  5.8091      7.1193      6.7040      8.0080      9.3323      10.533      11.459      12.113      12.610      12.972    
  13.036      12.578      11.539      10.111      8.5307      7.0251      5.7472      4.7588      4.0558      3.6071    
  3.3826      3.3661      3.5576      3.9724      4.6329      5.5515      5.2459      6.2363      7.3772      8.5760    
  9.7334      10.768      11.616      12.244      12.578      12.489      11.902      10.869      9.5393      8.1161    
  6.7811      5.6480      4.7588      4.1094      3.6794      3.4498      3.4096      3.5577      3.9035      4.4630    
  4.2708      4.9176      5.7531      6.7407      7.8175      8.9095      9.9450      10.851      11.539      11.902    
  11.842      11.323      10.404      9.2295      7.9722      6.7811      5.7472      4.9079      4.2683      3.8215    
  3.5585      3.4718      3.5578      3.8205      3.7294      4.0710      4.5912      5.2885      6.1417      7.1100    
  8.1395      9.1662      10.110      10.869      11.323      11.376      10.997      10.239      9.2295      8.1161    
  7.0251      6.0384      5.1990      4.5261      4.0276      3.7037      3.5491      3.5578      3.5578      3.6369    
  3.8779      4.2886      4.8718      5.6177      6.5031      7.4918      8.5307      9.5392      10.405      10.997    
  11.208      10.997      10.404      9.5393      8.5307      7.4917      6.5030      5.6177      4.8718      4.2887    
  3.8778      3.6368      3.7294      3.5578      3.5491      3.7038      4.0276      4.5260      5.1989      6.0385    
  7.0252      8.1161      9.2294      10.239      10.997      11.376      11.323      10.869      10.111      9.1663    
  8.1394      7.1099      6.1417      5.2886      4.5913      4.0710      4.2708      3.8204      3.5577      3.4718    
  3.5586      3.8215      4.2682      4.9078      5.7472      6.7812      7.9722      9.2294      10.405      11.323    
  11.842      11.902      11.539      10.851      9.9451      8.9095      7.8175      6.7407      5.7532      4.9176    
  5.2460      4.4630      3.9035      3.5576      3.4095      3.4499      3.6795      4.1093      4.7587      5.6481    
  6.7812      8.1161      9.5392      10.869      11.902      12.489      12.578      12.244      11.616      10.768    
  9.7334      8.5759      7.3772      6.2364      6.7039      5.5515      4.6330      3.9724      3.5575      3.3660    
  3.3828      3.6072      4.0557      4.7587      5.7472      7.0252      8.5307      10.110      11.539      12.578    
  13.036      12.972      12.610      12.113      11.459      10.533      9.3323      8.0080      8.5874      7.1192    
  5.8091      4.7664      4.0216      3.5574      3.3436      3.3601      3.6072      4.1093      4.9078      6.0385    
  7.4918      9.1662      10.851      12.244      12.972      12.979      12.598      12.244      12.061      11.828    
  11.193      10.034      10.622      9.0705      7.4467      5.9957      4.8517      4.0473      3.5574      3.3436    
  3.3828      3.6795      4.2682      5.1989      6.5031      8.1395      9.9450      11.616      12.610      12.598    
  11.865      11.113      10.928      11.337      11.795      11.641      11.877      11.053      9.4176      7.6566    
  6.0938      4.8810      4.0473      3.5574      3.3660      3.4499      3.8215      4.5260      5.6177      7.1100    
  8.9095      10.768      12.113      12.244      11.113      9.4858      8.4669      8.7312      10.041      11.424    
  10.901      11.963      11.311      9.5991      7.7289      6.0938      4.8517      4.0216      3.5575      3.4095    
  3.5586      4.0276      4.8718      6.1417      7.8175      9.7334      11.459      12.061      10.928      8.4669    
  6.0007      4.9810      6.0238      8.4854      7.0966      10.459      11.979      11.397      9.5991      7.6566    
  5.9957      4.7664      3.9724      3.5576      3.4718      3.7038      4.2886      5.2885      6.7407      8.5760    
  10.533      11.828      11.337      8.7312      4.9810      1.9508      1.2966      3.3970      1.4902      6.2798    
  10.287      11.979      11.311      9.4176      7.4467      5.8091      4.6330      3.9035      3.5577      3.5491    
  3.8779      4.5912      5.7531      7.3772      9.3323      11.193      11.795      10.041      6.0238      1.2965    
 -1.8590     -1.7870     -3.5440     0.79348      6.2798      10.459      11.963      11.053      9.0705      7.1192    
  5.5515      4.4630      3.8204      3.5578      3.6369      4.0710      4.9176      6.2363      8.0080      10.034    
  11.641      11.424      8.4855      3.3969     -1.7872     -4.5789     -3.5438     -2.1082      2.2169      7.2729    
  10.809      11.743      10.530      8.5163      6.6283      5.1474      4.1394      3.5599      3.3437      3.4584    
  3.9233      4.7980      6.1382      7.9133      9.9106      11.418      11.077      8.1377      3.3084     -1.3542    
 -2.1084     -3.5439     -1.3540      3.3085      8.1376      11.077      11.418      9.9107      7.9133      6.1381    
  4.7980      3.9233      3.4584      3.3437      3.5599      4.1393      5.1473      6.6284      8.5163      10.530    
  11.743      10.809      7.2731      2.2168      2.3600     -1.1980     -1.7869     0.86595      5.3252      9.3705    
  11.338      10.957      9.2028      7.2751      5.6466      4.4660      3.7312      3.3814      3.3661      3.6797    
  4.3653      5.4892      7.0805      9.0393      11.021      11.984      10.721      7.0722      7.6294      3.7177    
  1.1562      1.2967      3.9974      7.7311      10.581      11.399      10.335      8.4593      6.6449      5.1864    
  4.1721      3.5746      3.3333      3.4095      3.8101      4.5851      5.7969      7.4571      9.4389      11.360    
  12.186      10.914      11.364      8.8018      5.9449      4.3832      4.9810      7.3057      9.9374      11.419    
  11.146      9.5906      7.7258      6.0612      4.7844      3.9324      3.4618      3.3170      3.4716      3.9425    
  4.7818      6.0442      7.7242      9.6787      11.530      12.351      12.431      11.922      10.256      8.4827    
  7.7401      8.4668      10.099      11.484      11.690      10.586      8.8152      7.0458      5.5566      4.4610    
  3.7583      3.3980      3.3334      3.5489      4.0677      4.9396      6.2087      7.8559      9.7342      11.509    
  11.279      12.344      12.370      11.584      10.736      10.536      11.112      11.921      12.167      11.406    
  9.8495      8.0848      6.4612      5.1579      4.2311      3.6570      3.3860      3.3815      3.6367      4.1766    
  5.0452      6.2751      7.8385      9.5971      9.2772      10.839      12.018      12.507      12.436      12.254    
  12.324      12.598      12.656      12.068      10.768      9.1159      7.4575      6.0093      4.8854      4.1043    
  3.6320      3.4257      3.4585      3.7293      4.2610      5.0896      6.2372      7.6733      7.3756      8.8018    
  10.218      11.428      12.227      12.635      12.852      13.001      12.972      12.513      11.492      10.064    
  8.4893      6.9889      5.7208      4.7536      4.0856      3.6840      3.5149      3.5601      3.8204      4.3146    
  5.0692      6.0990      5.8741      6.9733      8.2116      9.4716      10.626      11.561      12.221      12.634    
  12.787      12.578      11.909      10.826      9.4757      8.0489      6.7244      5.6174      4.7704      4.1766    
  3.8105      3.6491      3.6799      3.9037      4.3330      4.9865      4.8491      5.5831      6.5022      7.5560    
  8.6621      9.7266      10.668      11.421      11.925      12.109      11.902      11.281      10.305      9.1074    
  7.8557      6.6942      5.7108      4.9381      4.3745      4.0065      3.8212      3.8104      3.9726      4.3147    
  4.2613      4.6688      5.2513      6.0013      6.8870      7.8529      8.8314      9.7528      10.545      11.127    
  11.410      11.323      10.848      10.042      9.0272      7.9433      6.9096      6.0008      5.2514      4.6720    
  4.2633      4.0220      3.9428      4.0220      4.0477      4.1769      4.4605      4.9048      5.5083      6.2534    
  7.1059      8.0198      8.9384      9.7895      10.481      10.911      10.997      10.712      10.100      9.2614    
  8.3144      7.3617      6.4748      5.6974      5.0565      4.5684      4.2397      4.0680      4.1768      4.0477    
  4.0681      4.2398      4.5684      5.0564      5.6973      6.4749      7.3618      8.3143      9.2613      10.100    
  10.712      10.997      10.911      10.481      9.7896      8.9384      8.0197      7.1058      6.2534      5.5085    
  4.9049      4.4604      4.6688      4.2612      4.0219      3.9428      4.0221      4.2634      4.6719      5.2513    
  6.0009      6.9097      7.9433      9.0271      10.042      10.848      11.323      11.410      11.127      10.545    
  9.7528      8.8313      7.8528      6.8870      6.0014      5.2514      5.5832      4.8491      4.3146      3.9725    
  3.8104      3.8213      4.0066      4.3744      4.9380      5.7108      6.6943      7.8557      9.1073      10.305    
  11.281      11.902      12.109      11.925      11.421      10.668      9.7266      8.6620      7.5560      6.5023    
  6.9733      5.8742      4.9866      4.3329      3.9035      3.6799      3.6492      3.8106      4.1765      4.7703    
  5.6175      6.7245      8.0489      9.4756      10.826      11.909      12.578      12.787      12.634      12.221    
  11.561      10.626      9.4715      8.2115      8.8017      7.3755      6.0991      5.0694      4.3146      3.8203    
  3.5600      3.5151      3.6841      4.0856      4.7534      5.7208      6.9890      8.4892      10.063      11.492    
  12.514      12.972      13.001      12.852      12.635      12.227      11.428      10.217      10.839      9.2772    
  7.6731      6.2372      5.0897      4.2611      3.7291      3.4584      3.4258      3.6321      4.1042      4.8854    
  6.0094      7.4575      9.1159      10.768      12.068      12.656      12.598      12.324      12.254      12.436    
  12.507      12.018      12.344      11.279      9.5970      7.8384      6.2751      5.0453      4.1766      3.6365    
  3.3814      3.3861      3.6571      4.2311      5.1578      6.4613      8.0848      9.8495      11.406      12.167    
  11.921      11.113      10.536      10.736      11.584      12.370      11.922      12.431      11.509      9.7341    
  7.8557      6.2087      4.9398      4.0677      3.5488      3.3333      3.3981      3.7584      4.4610      5.5565    
  7.0459      8.8153      10.586      11.689      11.484      10.099      8.4668      7.7402      8.4827      10.256    
  8.8016      11.364      12.351      11.530      9.6787      7.7240      6.0442      4.7820      3.9425      3.4715    
  3.3170      3.4619      3.9324      4.7843      6.0611      7.7258      9.5906      11.146      11.419      9.9373    
  7.3056      4.9811      4.3833      5.9449      3.7177      7.6292      10.914      12.186      11.360      9.4389    
  7.4570      5.7969      4.5852      3.8101      3.4094      3.3333      3.5747      4.1721      5.1864      6.6449    
  8.4593      10.335      11.399      10.581      7.7310      3.9973      1.2967      1.1563     -1.1978      2.3601    
  7.0720      10.720      11.984      11.021      9.0393      7.0804      5.4893      4.3654      3.6797      3.3660    
  3.3814      3.7313      4.4660      5.6466      7.2752      9.2028      10.957      11.338      9.3706      5.3252    
 0.86579     -1.7869      1.4908      2.3605      5.4806      9.1883      11.663      12.006      10.609      8.6112    
  6.7526      5.2816      4.2607      3.6489      3.3826      3.4257      3.7892      4.5247      5.6892      7.2791    
  9.1483      10.877      11.418      9.9436      6.7469      3.3088      2.2172     0.79418      2.2174      5.6958    
  9.3759      11.518      11.487      9.9112      7.9556      6.2146      4.8866      4.0038      3.5148      3.3599    
  3.5148      4.0038      4.8866      6.2146      7.9556      9.9111      11.487      11.518      9.3761      5.6957    
  5.4805      2.3603      1.4908      3.3090      6.7470      9.9435      11.418      10.877      9.1484      7.2791    
  5.6892      4.5247      3.7891      3.4256      3.3826      3.6489      4.2606      5.2816      6.7527      8.6112    
  10.609      12.006      11.663      9.1885      9.5190      6.2040      3.7179      3.3974      5.3256      8.2952    
  10.627      11.232      10.170      8.3727      6.6259      5.2095      4.2167      3.6280      3.3860      3.4498    
  3.8211      4.5446      5.6837      7.2645      9.1962      11.191      12.446      11.944      12.366      10.322    
  7.6937      5.9449      6.0240      7.7313      9.8836      11.139      10.857      9.3956      7.6272      6.0332    
  4.8014      3.9783      3.5283      3.3981      3.5585      4.0219      4.8375      6.0630      7.7082      9.6598    
  11.614      12.797      13.016      12.833      11.381      9.5569      8.4826      8.7312      9.9373      11.091    
  11.275      10.272      8.6208      6.9495      5.5304      4.4840      3.8200      3.4946      3.4619      3.7037    
  4.2396      5.1185      6.3887      8.0436      9.9568      11.835      11.822      13.032      13.182      12.379    
  11.310      10.736      10.928      11.484      11.667      10.986      9.5543      7.9038      6.3734      5.1404    
  4.2701      3.7479      3.5285      3.5749      3.8779      4.4604      5.3663      6.6321      8.2378      10.054    
  9.9386      11.557      12.780      13.244      13.013      12.535      12.254      12.243      12.167      11.592    
  10.387      8.8421      7.2887      5.9296      4.8806      4.1681      3.7644      3.6283      3.7316      4.0710    
  4.6687      5.5606      6.7706      8.2702      8.1367      9.6172      11.056      12.236      12.917      13.097    
  13.006      12.852      12.610      12.068      11.065      9.7033      8.2236      6.8209      5.6441      4.7636    
  4.1821      3.8688      3.7894      3.9236      4.2708      4.8490      5.6845      6.7909      6.6912      7.8497    
  9.1192      10.365      11.439      12.209      12.621      12.744      12.634      12.244      11.492      10.402    
  9.1066      7.7668      6.5414      5.5378      4.7973      4.3126      4.0569      4.0041      4.1397      4.4631    
  4.9865      5.7271      5.6844      6.4813      7.4373      8.4908      9.5452      10.493      11.247      11.753    
  11.985      11.925      11.539      10.826      9.8391      8.6928      7.5312      6.4820      5.6242      4.9846    
  4.5564      4.3209      4.2608      4.3656      4.6330      5.0692      5.0896      5.5604      6.1812      6.9376    
  7.7885      8.6682      9.5010      10.217      10.760      11.079      11.127      10.868      10.305      9.4925    
  8.5363      7.5584      6.6614      5.9079      5.3222      4.9050      4.6487      4.5446      4.5853      4.7665    
  4.8517      5.0452      5.3661      5.8180      6.3943      7.0710      7.8071      8.5520      9.2515      9.8483    
  10.280      10.481      10.404      10.042      9.4389      8.6802      7.8661      7.0816      6.3826      5.7987    
  5.3438      5.0232      4.8373      4.7819      4.9396      4.8811      4.9397      5.1184      5.4220      5.8503    
  6.3927      7.0278      7.7250      8.4440      9.1294      9.7083      10.100      10.239      10.100      9.7083    
  9.1295      8.4441      7.7249      7.0277      6.3928      5.8504      5.4220      5.1183      5.3661      5.0451    
  4.8517      4.7820      4.8374      5.0232      5.3436      5.7987      6.3826      7.0817      7.8661      8.6801    
  9.4389      10.042      10.404      10.481      10.280      9.8484      9.2515      8.5519      7.8070      7.0710    
  6.3945      5.8181      6.1814      5.5604      5.0894      4.7664      4.5853      4.5448      4.6487      4.9049    
  5.3221      5.9080      6.6615      7.5584      8.5362      9.4925      10.305      10.868      11.127      11.079    
  10.760      10.217      9.5010      8.6681      7.7885      6.9377      7.4373      6.4814      5.6845      5.0691    
  4.6329      4.3656      4.2609      4.3210      4.5563      4.9844      5.6242      6.4821      7.5312      8.6927    
  9.8391      10.826      11.539      11.925      11.985      11.753      11.247      10.493      9.5451      8.4907    
  9.1191      7.8497      6.6913      5.7272      4.9864      4.4629      4.1396      4.0042      4.0570      4.3126    
  4.7972      5.5378      6.5415      7.7668      9.1065      10.402      11.492      12.244      12.633      12.744    
  12.621      12.209      11.439      10.365      11.056      9.6170      8.1366      6.7910      5.6847      4.8490    
  4.2707      3.9235      3.7895      3.8689      4.1820      4.7635      5.6442      6.8210      8.2236      9.7032    
  11.065      12.068      12.610      12.851      13.006      13.097      12.917      12.236      12.781      11.557    
  9.9385      8.2701      6.7706      5.5608      4.6688      4.0709      3.7315      3.6284      3.7645      4.1680    
  4.8805      5.9296      7.2888      8.8421      10.387      11.592      12.167      12.243      12.254      12.535    
  13.013      13.244      13.182      13.032      11.822      10.054      8.2376      6.6321      5.3665      4.4604    
  3.8777      3.5748      3.5286      3.7479      4.2701      5.1403      6.3735      7.9039      9.5542      10.985    
  11.667      11.484      10.928      10.736      11.310      12.379      11.381      12.833      13.016      11.836    
  9.9567      8.0434      6.3887      5.1187      4.2397      3.7036      3.4619      3.4947      3.8200      4.4839    
  5.5303      6.9495      8.6209      10.272      11.275      11.091      9.9373      8.7312      8.4827      9.5568    
  7.6937      10.322      12.366      12.798      11.614      9.6597      7.7081      6.0630      4.8376      4.0219    
  3.5585      3.3981      3.5284      3.9784      4.8014      6.0332      7.6273      9.3956      10.857      11.139    
  9.8835      7.7312      6.0241      5.9451      3.7181      6.2041      9.5187      11.944      12.446      11.191    
  9.1961      7.2644      5.6837      4.5447      3.8211      3.4498      3.3860      3.6280      4.2167      5.2095    
  6.6259      8.3727      10.170      11.232      10.627      8.2951      5.3254      3.3975      7.0972      7.6296    
  9.5187      11.657      12.801      12.383      10.785      8.8613      7.0860      5.6637      4.6489      4.0066    
  3.6796      3.6322      3.8688      4.4305      5.3699      6.7023      8.3421      10.058      11.283      11.269    
  9.9435      8.1379      7.2733      6.2805      7.0726      9.1883      11.347      12.317      11.688      10.009    
  8.1372      6.4756      5.1941      4.3210      3.8106      3.6073      3.6841      4.0569      4.7756      5.8918    
  7.4012      9.1753      10.902      11.825      11.255      9.3759      9.1882      7.0723      6.2805      7.2735    
  9.3760      11.255      11.824      10.902      9.1753      7.4011      5.8918      4.7756      4.0569      3.6840    
  3.6073      3.8106      4.3209      5.1941      6.4757      8.1372      10.009      11.688      12.317      11.347    
  11.657      9.5186      7.6294      7.0972      8.1381      9.9437      11.269      11.283      10.058      8.3421    
  6.7023      5.3699      4.4305      3.8687      3.6321      3.6796      4.0066      4.6488      5.6637      7.0861    
  8.8613      10.785      12.383      12.801      13.276      12.189      10.322      8.8016      8.4858      9.3709    
  10.627      11.224      10.650      9.2005      7.5571      6.0794      4.9362      4.1743      3.7644      3.6572    
  3.8216      4.2634      5.0234      6.1555      7.6795      9.5164      11.438      12.948      13.331      13.680    
  12.829      11.381      10.256      10.041      10.581      11.139      10.981      9.9198      8.3867      6.8580    
  5.5611      4.6091      4.0170      3.7479      3.7585      4.0277      4.5685      5.4223      6.6344      8.2075    
  10.043      11.904      12.130      13.470      13.906      13.378      12.379      11.584      11.336      11.419    
  11.275      10.493      9.1482      7.6541      6.2743      5.1678      4.4002      3.9640      3.8202      3.9327    
  4.2887      4.9048      5.8183      7.0621      8.6218      10.387      10.510      12.082      13.311      13.841    
  13.626      13.013      12.435      12.061      11.689      10.986      9.8239      8.4242      7.0360      5.8303    
  4.9138      4.3164      4.0171      3.9786      4.1724      4.5913      5.2512      6.1814      7.4007      8.8811    
  8.9580      10.396      11.758      12.838      13.416      13.436      13.097      12.634      12.113      11.406    
  10.387      9.1272      7.8019      6.5656      5.5461      4.8090      4.3607      4.1744      4.2170      4.4663    
  4.9176      5.5830      6.4813      7.6184      7.6934      8.8433      10.052      11.184      12.088      12.644    
  12.797      12.621      12.221      11.615      10.768      9.7033      8.5174      7.3316      6.2745      5.4382    
  4.8598      4.5329      4.4305      4.5249      4.7984      5.2459      5.8738      6.6909      6.7905      7.6181    
  8.5486      9.5140      10.416      11.149      11.632      11.831      11.753      11.421      10.851      10.063    
  9.1066      8.0685      7.0617      6.1900      5.5188      5.0688      4.8288      4.7755      4.8868      5.1476    
  5.5515      6.0987      6.2369      6.7700      7.4003      8.1036      8.8339      9.5265      10.112      10.533    
  10.754      10.760      10.545      10.110      9.4756      8.6928      7.8458      7.0314      6.3314      5.7943    
  5.4332      5.2389      5.1939      5.2816      5.4894      5.8091      5.9958      6.2748      6.6315      7.0615    
  7.5515      8.0756      8.5962      9.0713      9.4609      9.7302      9.8485      9.7896      9.5392      9.1073    
  8.5364      7.8961      7.2646      6.7070      6.2621      5.9430      5.7465      5.6634      5.6834      5.7969    
  6.0440      6.0938      6.2085      6.3882      6.6339      6.9424      7.3040      7.7018      8.1140      8.5134    
  8.8658      9.1296      9.2614      9.2295      9.0272      8.6802      8.2396      7.7654      7.3099      6.9079    
  6.5776      6.3262      6.1551      6.0626      6.3881      6.2084      6.0938      6.0441      6.0627      6.1551    
  6.3260      6.5775      6.9080      7.3100      7.7654      8.2395      8.6802      9.0273      9.2295      9.2613    
  9.1295      8.8659      8.5135      8.1139      7.7017      7.3040      6.9426      6.6339      7.0616      6.6315    
  6.2747      5.9957      5.7970      5.6836      5.6635      5.7464      5.9428      6.2621      6.7071      7.2646    
  7.8960      8.5364      9.1074      9.5392      9.7895      9.8485      9.7303      9.4610      9.0712      8.5961    
  8.0756      7.5517      8.1036      7.4004      6.7701      6.2368      5.8090      5.4894      5.2818      5.1940    
  5.2388      5.4331      5.7943      6.3315      7.0314      7.8457      8.6928      9.4757      10.110      10.545    
  10.760      10.754      10.533      10.112      9.5264      8.8338      9.5139      8.5486      7.6182      6.7906    
  6.0987      5.5514      5.1476      4.8869      4.7756      4.8287      5.0687      5.5189      6.1901      7.0617    
  8.0683      9.1066      10.063      10.851      11.421      11.753      11.832      11.632      11.149      10.416    
  11.184      10.052      8.8433      7.6935      6.6911      5.8738      5.2457      4.7982      4.5250      4.4306    
  4.5329      4.8597      5.4382      6.2746      7.3316      8.5172      9.7033      10.768      11.616      12.221    
  12.621      12.797      12.645      12.088      12.838      11.758      10.396      8.9578      7.6184      6.4815    
  5.5830      4.9174      4.4662      4.2171      4.1745      4.3606      4.8089      5.5461      6.5657      7.8019    
  9.1270      10.387      11.406      12.113      12.634      13.096      13.436      13.416      13.841      13.312    
  12.082      10.510      8.8809      7.4008      6.1816      5.2513      4.5911      4.1723      3.9787      4.0171    
  4.3163      4.9137      5.8304      7.0361      8.4242      9.8239      10.986      11.689      12.061      12.435    
  13.013      13.626      13.378      13.906      13.470      12.130      10.387      8.6216      7.0621      5.8185    
  4.9049      4.2886      3.9326      3.8203      3.9641      4.4001      5.1677      6.2744      7.6542      9.1482    
  10.493      11.275      11.419      11.336      11.584      12.379      11.381      12.829      13.680      13.332    
  11.904      10.043      8.2073      6.6344      5.4224      4.5685      4.0276      3.7585      3.7480      4.0170    
  4.6090      5.5610      6.8580      8.3867      9.9198      10.981      11.139      10.581      10.041      10.256    
  8.8018      10.322      12.189      13.275      12.949      11.438      9.5163      7.6793      6.1555      5.0235    
  4.2634      3.8215      3.6571      3.7645      4.1743      4.9362      6.0794      7.5571      9.2006      10.650    
  11.224      10.627      9.3707      8.4858      10.902      11.364      12.365      13.275      13.402      12.509    
  10.957      9.2392      7.6411      6.3263      5.3439      4.6721      4.2683      4.1044      4.1822      4.5330    
  5.2007      6.2093      7.5181      8.9881      10.384      11.283      11.418      11.077      10.809      10.459    
  10.914      11.943      12.800      12.783      11.740      10.130      8.4407      6.9339      5.7467      4.9051    
  4.3746      4.1096      4.0858      4.3127      4.8289      5.6795      6.8765      8.3486      9.9120      11.244    
  11.824      11.518      11.662      10.720      10.287      10.720      11.662      12.316      12.052      10.851    
  9.2380      7.6346      6.2667      5.2390      4.5565      4.1767      4.0560      4.1768      4.5565      5.2390    
  6.2667      7.6346      9.2379      10.851      12.052      12.317      12.801      11.943      10.914      10.459    
  10.809      11.518      11.824      11.244      9.9121      8.3486      6.8765      5.6795      4.8289      4.3127    
  4.0858      4.1096      4.3746      4.9051      5.7466      6.9340      8.4408      10.130      11.740      12.783    
  13.402      13.275      12.365      11.364      10.901      11.078      11.418      11.283      10.384      8.9881    
  7.5180      6.2092      5.2008      4.5330      4.1821      4.1044      4.2684      4.6721      5.3438      6.3263    
  7.6412      9.2392      10.956      12.509      13.086      13.854      13.679      12.832      11.921      11.424    
  11.338      11.232      10.650      9.5083      8.1287      6.7881      5.6629      4.8487      4.3607      4.1681    
  4.2312      4.5261      5.0564      5.8505      6.9427      8.3379      9.9646      11.642      12.115      13.403    