    2    2   15    1
  0.2001288E+02  0.3839590E-09  0.3839590E-09  0.3839590E-09  0.5000000E-15
  1.000000000000000E-004
  CAR 
 unknown system                          
      8     35      8
 
  0.0000000E+00  0.0000000E+00  0.0000000E+00  0.1371742E-02
    1       -6.131225   1.000000
    2        5.829716   0.972619
    3        5.829719   0.972618
    4        5.829719   0.972618
    5        8.396864   0.000000
    6        8.396866   0.000000
    7        8.396866   0.000000
    8        9.206351   0.000000
 
  0.1111111E+00  0.2174102E-18  0.2072965E-17  0.1097394E-01
    1       -5.969659   1.000000
    2        4.487085   1.000000
    3        5.592447   0.999840
    4        5.592449   0.999840
    5        8.379075   0.000000
    6        8.747064   0.000000
    7        8.747064   0.000000
    8       10.311292   0.000000
 
  0.2222222E+00 -0.4325414E-18  0.5013291E-17  0.1097394E-01
    1       -5.494893   1.000000
    2        2.410083   1.000000
    3        5.168429   1.000000
    4        5.168431   1.000000
    5        7.967627   0.000000
    6        9.275327   0.000000
    7        9.275330   0.000000
    8       12.281640   0.000000
 
  0.3333333E+00  0.6723763E-17  0.1473614E-18  0.1097394E-01
    1       -4.753827   1.000000
    2        0.497111   1.000000
    3        4.830398   1.000000
    4        4.830399   1.000000
    5        7.596537   0.000000
    6        9.340151   0.000000
    7        9.340158   0.000000
    8       13.699298   0.000000
 
  0.4444444E+00 -0.8650829E-18  0.1002658E-16  0.1097394E-01
    1       -3.961811   1.000000
    2       -0.899340   1.000000
    3        4.654505   1.000000
    4        4.654505   1.000000
    5        7.396619   0.000000
    6        9.197973   0.000000
    7        9.197980   0.000000
    8       13.594294   0.000000
 
  0.1111111E+00  0.1111111E+00  0.5723364E-17  0.8230453E-02
    1       -5.915355   1.000000
    2        4.721041   1.000000
    3        5.152617   1.000000
    4        5.152618   1.000000
    5        7.942444   0.000000
    6        9.339321   0.000000
    7        9.339323   0.000000
    8       10.138631   0.000000
 
  0.2222222E+00  0.1111111E+00  0.7521076E-17  0.3292181E-01
    1       -5.542995   1.000000
    2        3.034256   1.000000
    3        4.679037   1.000000
    4        4.817922   1.000000
    5        8.033180   0.000000
    6        9.376578   0.000000
    7       10.053267   0.000000
    8       10.743115   0.000000
 
  0.3333333E+00  0.1111111E+00  0.1455535E-16  0.3292181E-01
    1       -4.881780   1.000000
    2        1.125242   1.000000
    3        4.312288   1.000000
    4        4.374006   1.000000
    5        8.157304   0.000000
    6        9.337791   0.000000
    7       10.218344   0.000000
    8       11.173139   0.000000
 
  0.4444444E+00  0.1111111E+00  0.5595473E-17  0.3292181E-01
    1       -4.054664   1.000000
    2       -0.466309   1.000000
    3        3.876199   1.000000
    4        4.291964   1.000000
    5        8.038613   0.000000
    6        9.234459   0.000000
    7        9.934408   0.000000
    8       12.621079   0.000000
 
 -0.4444444E+00  0.1111111E+00  0.1329788E-16  0.3292181E-01
    1       -3.675275   1.000000
    2       -1.039337   1.000000
    3        3.616866   1.000000
    4        4.432079   1.000000
    5        8.047222   0.000000
    6        9.252243   0.000000
    7        9.669457   0.000000
    8       14.009955   0.000000
 
 -0.3333333E+00  0.1111111E+00 -0.1536845E-16  0.3292181E-01
    1       -4.333405   1.000000
    2        0.010506   1.000000
    3        3.582357   1.000000
    4        4.762677   1.000000
    5        8.237967   0.000000
    6        9.475705   0.000000
    7        9.548998   0.000000
    8       13.242428   0.000000
 
 -0.2222222E+00  0.1111111E+00  0.4433388E-17  0.3292181E-01
    1       -5.132884   1.000000
    2        1.741494   1.000000
    3        3.814140   1.000000
    4        5.212641   1.000000
    5        8.565784   0.000000
    6        9.342431   0.000000
    7        9.622712   0.000000
    8       11.930083   0.000000
 
 -0.1111111E+00  0.1111111E+00 -0.5393851E-17  0.1646091E-01
    1       -5.702846   1.000000
    2        3.508970   1.000000
    3        4.464485   1.000000
    4        5.606257   0.999768
    5        8.840819   0.000000
    6        8.849584   0.000000
    7        9.050333   0.000000
    8       11.229500   0.000000
 
  0.2222222E+00  0.2222222E+00  0.1144673E-16  0.8230453E-02
    1       -5.273751   1.000000
    2        2.813453   1.000000
    3        4.157539   1.000000
    4        4.157540   1.000000
    5        7.139425   0.000000
    6        9.389466   0.000000
    7       11.107280   0.000000
    8       11.107282   0.000000
 
  0.3333333E+00  0.2222222E+00  0.1123446E-16  0.3292181E-01
    1       -4.704013   1.000000
    2        1.478507   1.000000
    3        3.531946   1.000000
    4        3.815229   1.000000
    5        7.293995   0.000000
    6        9.002031   0.000000
    7       11.356806   0.000000
    8       11.680221   0.000000
 
  0.4444444E+00  0.2222222E+00  0.1417479E-16  0.3292181E-01
    1       -3.904162   1.000000
    2        0.004581   1.000000
    3        2.790725   1.000000
    4        3.717332   1.000000
    5        7.477316   0.000000
    6       10.023170   0.000000
    7       11.117977   0.000000
    8       11.484924   0.000000
 
 -0.4444444E+00  0.2222222E+00  0.1691589E-16  0.3292181E-01
    1       -3.248004   1.000000
    2       -0.939248   1.000000
    3        2.270331   1.000000
    4        3.872679   1.000000
    5        7.628404   0.000000
    6       10.858046   0.000000
    7       11.099247   0.000000
    8       12.026134   0.000000
 
 -0.3333333E+00  0.2222222E+00  0.1787863E-16  0.3292181E-01
    1       -3.661108   1.000000
    2       -0.359988   1.000000
    3        2.088265   1.000000
    4        4.254022   1.000000
    5        8.018012   0.000000
    6       10.762712   0.000000
    7       10.800118   0.000000
    8       13.051579   0.000000
 
 -0.2222222E+00  0.2222222E+00 -0.1078770E-16  0.1646091E-01
    1       -4.484718   1.000000
    2        0.889627   1.000000
    3        2.472788   1.000000
    4        4.776565   1.000000
    5        8.554664   0.000000
    6       10.161216   0.000000
    7       10.488784   0.000000
    8       11.712294   0.000000
 
  0.3333333E+00  0.3333333E+00  0.1717009E-16  0.8230453E-02
    1       -4.226131   1.000000
    2        0.821504   1.000000
    3        3.413956   1.000000
    4        3.413957   1.000000
    5        6.557431   0.000630
    6        7.822165   0.000000
    7       13.099168   0.000000
    8       13.099170   0.000000
 
  0.4444444E+00  0.3333333E+00  0.1668257E-16  0.3292181E-01
    1       -3.486746   1.000000
    2       -0.229946   1.000000
    3        2.687199   1.000000
    4        3.256685   1.000000
    5        6.799287   0.000000
    6        7.870599   0.000000
    7       13.409606   0.000000
    8       13.443523   0.000000
 
 -0.4444444E+00  0.3333333E+00 -0.5348174E-17  0.3292181E-01
    1       -2.691346   1.000000
    2       -1.128756   1.000000
    3        1.781357   1.000000
    4        3.364075   1.000000
    5        6.996116   0.000000
    6        9.475949   0.000000
    7       13.064338   0.000000
    8       13.203728   0.000000
 
 -0.3333333E+00  0.3333333E+00  0.1344753E-16  0.1646091E-01
    1       -2.865496   1.000000
    2       -0.938619   1.000000
    3        1.417879   1.000000
    4        3.719680   1.000000
    5        7.397675   0.000000
    6       11.630502   0.000000
    7       12.313255   0.000000
    8       12.912953   0.000000
 
  0.4444444E+00  0.4444444E+00  0.2289345E-16  0.8230453E-02
    1       -2.811122   1.000000
    2       -1.094954   1.000000
    3        3.028199   1.000000
    4        3.028200   1.000000
    5        6.412869   0.013806
    6        6.811999   0.000000
    7       15.185661   0.000000
    8       15.185678   0.000000
 
 -0.4444444E+00  0.4444444E+00 -0.2157540E-16  0.1646091E-01
    1       -2.037763   1.000000
    2       -1.868329   1.000000
    3        2.411355   1.000000
    4        3.065758   1.000000
    5        6.638990   0.000072
    6        7.471765   0.000000
    7       15.064314   0.000000
    8       15.405498   0.000000
 
  0.3333333E+00  0.2222222E+00  0.1111111E+00  0.3292181E-01
    1       -5.072978   1.000000
    2        2.042707   1.000000
    3        3.461456   1.000000
    4        4.665092   1.000000
    5        8.211429   0.000000
    6        9.666198   0.000000
    7       10.224424   0.000000
    8       10.861463   0.000000
 
  0.4444444E+00  0.2222222E+00  0.1111111E+00  0.6584362E-01
    1       -4.337046   1.000000
    2        0.551301   1.000000
    3        2.854784   1.000000
    4        4.227032   1.000000
    5        8.600783   0.000000
    6        9.442560   0.000000
    7       10.623674   0.000000
    8       11.300320   0.000000
 
 -0.4444444E+00  0.2222222E+00  0.1111111E+00  0.6584362E-01
    1       -3.539571   1.000000
    2       -0.739213   1.000000
    3        2.662658   1.000000
    4        3.903240   1.000000
    5        8.701627   0.000000
    6        9.029496   0.000000
    7       11.246889   0.000000
    8       12.366770   0.000000
 
  0.4444444E+00  0.3333333E+00  0.1111111E+00  0.3292181E-01
    1       -4.051722   1.000000
    2        0.517629   1.000000
    3        2.749530   1.000000
    4        3.440691   1.000000
    5        7.655299   0.000000
    6        8.660221   0.000000
    7       11.285403   0.000000
    8       13.008019   0.000000
 
 -0.4444444E+00  0.3333333E+00  0.1111111E+00  0.6584362E-01
    1       -3.224006   1.000000
    2       -0.567435   1.000000
    3        2.084627   1.000000
    4        3.134194   1.000000
    5        8.058555   0.000000
    6        9.757532   0.000000
    7       10.846184   0.000000
    8       13.410392   0.000000
 
 -0.3333333E+00  0.3333333E+00  0.1111111E+00  0.6584362E-01
    1       -2.857986   1.000000
    2       -0.994041   1.000000
    3        1.697522   1.000000
    4        3.246890   1.000000
    5        8.350681   0.000000
    6       10.353857   0.000000
    7       11.897519   0.000000
    8       12.460191   0.000000
 
 -0.2222222E+00  0.3333333E+00  0.1111111E+00  0.3292181E-01
    1       -3.560042   1.000000
    2       -0.191379   1.000000
    3        1.844712   1.000000
    4        3.684417   1.000000
    5        8.864648   0.000000
    6        9.857360   0.000000
    7       10.718568   0.000000
    8       12.760459   0.000000
 
 -0.4444444E+00  0.4444444E+00  0.1111111E+00  0.3292181E-01
    1       -2.694574   1.000000
    2       -1.110743   1.000000
    3        2.461936   1.000000
    4        2.671601   1.000000
    5        7.478890   0.000000
    6        7.788944   0.000000
    7       13.061959   0.000000
    8       14.958651   0.000000
 
 -0.3333333E+00  0.4444444E+00  0.1111111E+00  0.3292181E-01
    1       -2.170919   1.000000
    2       -1.572307   1.000000
    3        1.736747   1.000000
    4        2.759983   1.000000
    5        7.849932   0.000000
    6        9.493196   0.000000
    7       12.512057   0.000000
    8       12.768733   0.000000
 
 -0.3333333E+00  0.4444444E+00  0.2222222E+00  0.3292181E-01
    1       -2.417357   1.000000
    2       -1.256910   1.000000
    3        1.775598   1.000000
    4        2.418415   1.000000
    5        9.683450   0.000000
    6        9.770606   0.000000
    7       10.473667   0.000000
    8       12.214553   0.000000
