 vasp.5.4.4.18Apr17-6-g9f103f2a35 (build Dec 09 2018 21:25:21) complex          
  
 executed on IFC18.0.1.163_CrayMP date 2019.03.19  14:03:16
 running on    8 total cores
 distrk:  each k-point on    8 cores,    1 groups
 distr:  one band on NCORES_PER_BAND=   1 cores,    8 groups


--------------------------------------------------------------------------------------------------------


 INCAR:
 POTCAR:   PAW_PBE Si 05Jan2001                   

 ----------------------------------------------------------------------------- 
|                                                                             |
|           W    W    AA    RRRRR   N    N  II  N    N   GGGG   !!!           |
|           W    W   A  A   R    R  NN   N  II  NN   N  G    G  !!!           |
|           W    W  A    A  R    R  N N  N  II  N N  N  G       !!!           |
|           W WW W  AAAAAA  RRRRR   N  N N  II  N  N N  G  GGG   !            |
|           WW  WW  A    A  R   R   N   NN  II  N   NN  G    G                |
|           W    W  A    A  R    R  N    N  II  N    N   GGGG   !!!           |
|                                                                             |
|      For optimal performance we recommend to set                            |
|        NCORE= 4 - approx SQRT( number of cores)                             |
|      NCORE specifies how many cores store one orbital (NPAR=cpu/NCORE).     |
|      This setting can  greatly improve the performance of VASP for DFT.     |
|      The default,   NCORE=1            might be grossly inefficient         |
|      on modern multi-core architectures or massively parallel machines.     |
|      Do your own testing !!!!                                               |
|      Unfortunately you need to use the default for GW and RPA calculations. |
|      (for HF NCORE is supported but not extensively tested yet)             |
|                                                                             |
 ----------------------------------------------------------------------------- 

 POTCAR:   PAW_PBE Si 05Jan2001                   
   VRHFIN =Si: s2p2                                                             
   LEXCH  = PE                                                                  
   EATOM  =   103.0669 eV,    7.5752 Ry                                         
                                                                                
   TITEL  = PAW_PBE Si 05Jan2001                                                
   LULTRA =        F    use ultrasoft PP ?                                      
   IUNSCR =        1    unscreen: 0-lin 1-nonlin 2-no                           
   RPACOR =    1.500    partial core radius                                     
   POMASS =   28.085; ZVAL   =    4.000    mass and valenz                      
   RCORE  =    1.900    outmost cutoff radius                                   
   RWIGS  =    2.480; RWIGS  =    1.312    wigner-seitz radius (au A)           
   ENMAX  =  245.345; ENMIN  =  184.009 eV                                      
   ICORE  =        2    local potential                                         
   LCOR   =        T    correct aug charges                                     
   LPAW   =        T    paw PP                                                  
   EAUG   =  322.069                                                            
   DEXC   =    -.007                                                            
   RMAX   =    2.944    core radius for proj-oper                               
   RAUG   =    1.300    factor for augmentation sphere                          
   RDEP   =    1.993    radius for radial grids                                 
   QCUT   =   -4.246; QGAM   =    8.493    optimization parameters              
                                                                                
   Description                                                                  
     l     E      TYP  RCUT    TYP  RCUT                                        
     0   .000     23  1.900                                                     
     0   .000     23  1.900                                                     
     1   .000     23  1.900                                                     
     1   .000     23  1.900                                                     
     2   .000      7  1.900                                                     
  local pseudopotential read in
  partial core-charges read in
  atomic valenz-charges read in
  non local Contribution for L=           0  read in
    real space projection operators read in
  non local Contribution for L=           0  read in
    real space projection operators read in
  non local Contribution for L=           1  read in
    real space projection operators read in
  non local Contribution for L=           1  read in
    real space projection operators read in
    PAW grid and wavefunctions read in
 
   number of l-projection  operators is LMAX  =           4
   number of lm-projection operators is LMMAX =           8
 
 PAW_PBE Si 05Jan2001                   :
 energy of atom  1       EATOM= -103.0669
 kinetic energy error for atom=    0.0013 (will be added to EATOM!!)
 
 
 POSCAR: Si2                                     
  positions in direct lattice
  No initial velocities read in
 exchange correlation table for  LEXCH =        8
   RHO(1)=    0.500       N(1)  =     2000
   RHO(2)=  100.500       N(2)  =     4000
 


--------------------------------------------------------------------------------------------------------


 ion  position               nearest neighbor table
   1  0.500  0.500  0.500-   2 2.35   2 2.35   2 2.35   2 2.35
   2  0.750  0.750  0.750-   1 2.35   1 2.35   1 2.35   1 2.35
 
  LATTYP: Found a face centered cubic cell.
 ALAT       =     5.4300000000
  
  Lattice vectors:
  
 A1 = (   0.0000000000,   2.7150000000,   2.7150000000)
 A2 = (   2.7150000000,   0.0000000000,   2.7150000000)
 A3 = (   2.7150000000,   2.7150000000,   0.0000000000)


Analysis of symmetry for initial positions (statically):
=====================================================================
 Subroutine PRICEL returns:
 Original cell was already a primitive cell.
 

 Routine SETGRP: Setting up the symmetry group for a 
 face centered cubic supercell.


 Subroutine GETGRP returns: Found 48 space group operations
 (whereof 24 operations were pure point group operations)
 out of a pool of 48 trial point group operations.


The static configuration has the point symmetry T_d .
 The point group associated with its full space group is O_h .


Analysis of symmetry for dynamics (positions and initial velocities):
=====================================================================
 Subroutine PRICEL returns:
 Original cell was already a primitive cell.
 

 Routine SETGRP: Setting up the symmetry group for a 
 face centered cubic supercell.


 Subroutine GETGRP returns: Found 48 space group operations
 (whereof 24 operations were pure point group operations)
 out of a pool of 48 trial point group operations.


The dynamic configuration has the point symmetry T_d .
 The point group associated with its full space group is O_h .


 Subroutine INISYM returns: Found 48 space group operations
 (whereof 24 operations are pure point group operations),
 and found     1 'primitive' translations

 
 
 KPOINTS: Automatic kpoint scheme                 

Automatic generation of k-mesh.
Space group operators:
 irot       det(A)        alpha          n_x          n_y          n_z        tau_x        tau_y        tau_z
    1     1.000000     0.000001     1.000000     0.000000     0.000000     0.000000     0.000000     0.000000
    2     1.000000   120.000000    -0.577350    -0.577350    -0.577350     0.000000     0.000000     0.000000
    3     1.000000   120.000000     0.577350     0.577350     0.577350     0.000000     0.000000     0.000000
    4    -1.000000    90.000000    -0.000000    -0.000000    -1.000000     0.000000     0.000000     0.000000
    5    -1.000000   180.000000    -0.000000     0.707107     0.707107     0.000000     0.000000     0.000000
    6    -1.000000    90.000000    -0.000000     1.000000    -0.000000     0.000000     0.000000     0.000000
    7     1.000000   180.000000     0.000000     0.000000    -1.000000     0.000000     0.000000     0.000000
    8     1.000000   120.000000    -0.577350     0.577350     0.577350     0.000000     0.000000     0.000000
    9     1.000000   120.000000    -0.577350     0.577350    -0.577350     0.000000     0.000000     0.000000
   10    -1.000000    90.000000     0.000000     0.000000     1.000000     0.000000     0.000000     0.000000
   11    -1.000000    90.000000    -1.000000     0.000000    -0.000000     0.000000     0.000000     0.000000
   12    -1.000000   180.000000     0.707107     0.000000     0.707107     0.000000     0.000000     0.000000
   13     1.000000   120.000000     0.577350    -0.577350     0.577350     0.000000     0.000000     0.000000
   14     1.000000   120.000000    -0.577350    -0.577350     0.577350     0.000000     0.000000     0.000000
   15     1.000000   180.000000     1.000000     0.000000     0.000000     0.000000     0.000000     0.000000
   16    -1.000000    90.000000     0.000000    -1.000000     0.000000     0.000000     0.000000     0.000000
   17    -1.000000   180.000000     0.707107     0.707107    -0.000000     0.000000     0.000000     0.000000
   18    -1.000000    90.000000     1.000000     0.000000     0.000000     0.000000     0.000000     0.000000
   19     1.000000   120.000000     0.577350    -0.577350    -0.577350     0.000000     0.000000     0.000000
   20     1.000000   180.000000     0.000000    -1.000000     0.000000     0.000000     0.000000     0.000000
   21     1.000000   120.000000     0.577350     0.577350    -0.577350     0.000000     0.000000     0.000000
   22    -1.000000   180.000000    -0.000000    -0.707107     0.707107     0.000000     0.000000     0.000000
   23    -1.000000   180.000000     0.707107    -0.707107    -0.000000     0.000000     0.000000     0.000000
   24    -1.000000   180.000000    -0.707107     0.000000     0.707107     0.000000     0.000000     0.000000
   25    -1.000000     0.000001     1.000000     0.000000     0.000000     0.250000     0.250000     0.250000
   26    -1.000000   120.000000    -0.577350    -0.577350    -0.577350     0.250000     0.250000     0.250000
   27    -1.000000   120.000000     0.577350     0.577350     0.577350     0.250000     0.250000     0.250000
   28     1.000000    90.000000    -0.000000    -0.000000    -1.000000     0.250000     0.250000     0.250000
   29     1.000000   180.000000    -0.000000     0.707107     0.707107     0.250000     0.250000     0.250000
   30     1.000000    90.000000    -0.000000     1.000000    -0.000000     0.250000     0.250000     0.250000
   31    -1.000000   180.000000     0.000000     0.000000    -1.000000     0.250000     0.250000     0.250000
   32    -1.000000   120.000000    -0.577350     0.577350     0.577350     0.250000     0.250000     0.250000
   33    -1.000000   120.000000    -0.577350     0.577350    -0.577350     0.250000     0.250000     0.250000
   34     1.000000    90.000000     0.000000     0.000000     1.000000     0.250000     0.250000     0.250000
   35     1.000000    90.000000    -1.000000     0.000000    -0.000000     0.250000     0.250000     0.250000
   36     1.000000   180.000000     0.707107     0.000000     0.707107     0.250000     0.250000     0.250000
   37    -1.000000   120.000000     0.577350    -0.577350     0.577350     0.250000     0.250000     0.250000
   38    -1.000000   120.000000    -0.577350    -0.577350     0.577350     0.250000     0.250000     0.250000
   39    -1.000000   180.000000     1.000000     0.000000     0.000000     0.250000     0.250000     0.250000
   40     1.000000    90.000000     0.000000    -1.000000     0.000000     0.250000     0.250000     0.250000
   41     1.000000   180.000000     0.707107     0.707107    -0.000000     0.250000     0.250000     0.250000
   42     1.000000    90.000000     1.000000     0.000000     0.000000     0.250000     0.250000     0.250000
   43    -1.000000   120.000000     0.577350    -0.577350    -0.577350     0.250000     0.250000     0.250000
   44    -1.000000   180.000000     0.000000    -1.000000     0.000000     0.250000     0.250000     0.250000
   45    -1.000000   120.000000     0.577350     0.577350    -0.577350     0.250000     0.250000     0.250000
   46     1.000000   180.000000    -0.000000    -0.707107     0.707107     0.250000     0.250000     0.250000
   47     1.000000   180.000000     0.707107    -0.707107    -0.000000     0.250000     0.250000     0.250000
   48     1.000000   180.000000    -0.707107     0.000000     0.707107     0.250000     0.250000     0.250000
 
 Subroutine IBZKPT returns following result:
 ===========================================
 
 Found     35 irreducible k-points:
 
 Following reciprocal coordinates:
            Coordinates               Weight
  0.000000  0.000000  0.000000      1.000000
  0.111111  0.000000  0.000000      8.000000
  0.222222 -0.000000  0.000000      8.000000
  0.333333  0.000000  0.000000      8.000000
  0.444444 -0.000000  0.000000      8.000000
  0.111111  0.111111  0.000000      6.000000
  0.222222  0.111111  0.000000     24.000000
  0.333333  0.111111  0.000000     24.000000
  0.444444  0.111111  0.000000     24.000000
 -0.444444  0.111111  0.000000     24.000000
 -0.333333  0.111111 -0.000000     24.000000
 -0.222222  0.111111  0.000000     24.000000
 -0.111111  0.111111 -0.000000     12.000000
  0.222222  0.222222  0.000000      6.000000
  0.333333  0.222222  0.000000     24.000000
  0.444444  0.222222  0.000000     24.000000
 -0.444444  0.222222  0.000000     24.000000
 -0.333333  0.222222  0.000000     24.000000
 -0.222222  0.222222 -0.000000     12.000000
  0.333333  0.333333  0.000000      6.000000
  0.444444  0.333333  0.000000     24.000000
 -0.444444  0.333333 -0.000000     24.000000
 -0.333333  0.333333  0.000000     12.000000
  0.444444  0.444444  0.000000      6.000000
 -0.444444  0.444444 -0.000000     12.000000
  0.333333  0.222222  0.111111     24.000000
  0.444444  0.222222  0.111111     48.000000
 -0.444444  0.222222  0.111111     48.000000
  0.444444  0.333333  0.111111     24.000000
 -0.444444  0.333333  0.111111     48.000000
 -0.333333  0.333333  0.111111     48.000000
 -0.222222  0.333333  0.111111     24.000000
 -0.444444  0.444444  0.111111     24.000000
 -0.333333  0.444444  0.111111     24.000000
 -0.333333  0.444444  0.222222     24.000000
 
 Following cartesian coordinates:
            Coordinates               Weight
  0.000000  0.000000  0.000000      1.000000
 -0.020462  0.020462  0.020462      8.000000
 -0.040925  0.040925  0.040925      8.000000
 -0.061387  0.061387  0.061387      8.000000
 -0.081850  0.081850  0.081850      8.000000
  0.000000  0.000000  0.040925      6.000000
 -0.020462  0.020462  0.061387     24.000000
 -0.040925  0.040925  0.081850     24.000000
 -0.061387  0.061387  0.102312     24.000000
  0.102312 -0.102312 -0.061387     24.000000
  0.081850 -0.081850 -0.040925     24.000000
  0.061387 -0.061387 -0.020462     24.000000
  0.040925 -0.040925  0.000000     12.000000
  0.000000 -0.000000  0.081850      6.000000
 -0.020462  0.020462  0.102312     24.000000
 -0.040925  0.040925  0.122775     24.000000
  0.122775 -0.122775 -0.040925     24.000000
  0.102312 -0.102312 -0.020462     24.000000
  0.081850 -0.081850  0.000000     12.000000
  0.000000  0.000000  0.122775      6.000000
 -0.020462  0.020462  0.143237     24.000000
  0.143237 -0.143237 -0.020462     24.000000
  0.122775 -0.122775  0.000000     12.000000
  0.000000 -0.000000  0.163700      6.000000
  0.163700 -0.163700  0.000000     12.000000
  0.000000  0.040925  0.081850     24.000000
 -0.020462  0.061387  0.102312     48.000000
  0.143237 -0.102312 -0.061387     48.000000
 -0.000000  0.040925  0.122775     24.000000
  0.163700 -0.122775 -0.040925     48.000000
  0.143237 -0.102312 -0.020462     48.000000
  0.122775 -0.081850 -0.000000     24.000000
  0.184162 -0.143237 -0.020462     24.000000
  0.163700 -0.122775 -0.000000     24.000000
  0.184162 -0.102312 -0.020462     24.000000
 


--------------------------------------------------------------------------------------------------------




 Dimension of arrays:
   k-points           NKPTS =     35   k-points in BZ     NKDIM =     35   number of bands    NBANDS=      8
   number of dos      NEDOS =    301   number of ions     NIONS =      2
   non local maximal  LDIM  =      4   non local SUM 2l+1 LMDIM =      8
   total plane-waves  NPLWV =   5832
   max r-space proj   IRMAX =      1   max aug-charges    IRDMAX=   5071
   dimension x,y,z NGX =    18 NGY =   18 NGZ =   18
   dimension x,y,z NGXF=    36 NGYF=   36 NGZF=   36
   support grid    NGXF=    36 NGYF=   36 NGZF=   36
   ions per type =               2
   NGX,Y,Z   is equivalent  to a cutoff of   7.79,  7.79,  7.79 a.u.
   NGXF,Y,Z  is equivalent  to a cutoff of  15.59, 15.59, 15.59 a.u.

 SYSTEM =  unknown system                          
 POSCAR =  Si2                                     

 Startparameter for this run:
   NWRITE =      2    write-flag & timer
   PREC   = normal    normal or accurate (medium, high low for compatibility)
   ISTART =      0    job   : 0-new  1-cont  2-samecut
   ICHARG =      2    charge: 1-file 2-atom 10-const
   ISPIN  =      1    spin polarized calculation?
   LNONCOLLINEAR =      F non collinear calculations
   LSORBIT =      F    spin-orbit coupling
   INIWAV =      1    electr: 0-lowe 1-rand  2-diag
   LASPH  =      F    aspherical Exc in radial PAW
   METAGGA=      F    non-selfconsistent MetaGGA calc.

 Electronic Relaxation 1
   ENCUT  =  350.0 eV  25.72 Ry    5.07 a.u.   5.86  5.86  5.86*2*pi/ulx,y,z
   ENINI  =  350.0     initial cutoff
   ENAUG  =  322.1 eV  augmentation charge cutoff
   NELM   =     60;   NELMIN=  2; NELMDL= -5     # of ELM steps 
   EDIFF  = 0.4E-03   stopping-criterion for ELM
   LREAL  =      F    real-space projection
   NLSPLINE    = F    spline interpolate recip. space projectors
   LCOMPAT=      F    compatible to vasp.4.4
   GGA_COMPAT  = T    GGA compatible to vasp.4.4-vasp.4.6
   LMAXPAW     = -100 max onsite density
   LMAXMIX     =    2 max onsite mixed and CHGCAR
   VOSKOWN=      0    Vosko Wilk Nusair interpolation
   ROPT   =    0.00000
 Ionic relaxation
   EDIFFG = -.1E-01   stopping-criterion for IOM
   NSW    =     15    number of steps for IOM
   NBLOCK =      1;   KBLOCK =     15    inner block; outer block 
   IBRION =      2    ionic relax: 0-MD 1-quasi-New 2-CG
   NFREE  =      1    steps in history (QN), initial steepest desc. (CG)
   ISIF   =      2    stress and relaxation
   IWAVPR =     11    prediction:  0-non 1-charg 2-wave 3-comb
   ISYM   =      2    0-nonsym 1-usesym 2-fastsym
   LCORR  =      T    Harris-Foulkes like correction to forces

   POTIM  = 0.5000    time-step for ionic-motion
   TEIN   =    0.0    initial temperature
   TEBEG  =    0.0;   TEEND  =   0.0 temperature during run
   SMASS  =  -3.00    Nose mass-parameter (am)
   estimated Nose-frequenzy (Omega)   =  0.10E-29 period in steps =****** mass=  -0.337E-27a.u.
   SCALEE = 1.0000    scale energy and forces
   NPACO  =    256;   APACO  = 16.0  distance and # of slots for P.C.
   PSTRESS=    0.0 pullay stress

  Mass of Ions in am
   POMASS =  28.09
  Ionic Valenz
   ZVAL   =   4.00
  Atomic Wigner-Seitz radii
   RWIGS  =  -1.00
  virtual crystal weights 
   VCA    =   1.00
   NELECT =       8.0000    total number of electrons
   NUPDOWN=      -1.0000    fix difference up-down

 DOS related values:
   EMIN   =  10.00;   EMAX   =-10.00  energy-range for DOS
   EFERMI =   0.00
   ISMEAR =     0;   SIGMA  =   0.20  broadening in eV -4-tet -1-fermi 0-gaus

 Electronic relaxation 2 (details)
   IALGO  =     38    algorithm
   LDIAG  =      T    sub-space diagonalisation (order eigenvalues)
   LSUBROT=      F    optimize rotation matrix (better conditioning)
   TURBO    =      0    0=normal 1=particle mesh
   IRESTART =      0    0=no restart 2=restart with 2 vectors
   NREBOOT  =      0    no. of reboots
   NMIN     =      0    reboot dimension
   EREF     =   0.00    reference energy to select bands
   IMIX   =      4    mixing-type and parameters
     AMIX     =   0.40;   BMIX     =  1.00
     AMIX_MAG =   1.60;   BMIX_MAG =  1.00
     AMIN     =   0.10
     WC   =   100.;   INIMIX=   1;  MIXPRE=   1;  MAXMIX= -45

 Intra band minimization:
   WEIMIN = 0.0010     energy-eigenvalue tresh-hold
   EBREAK =  0.13E-04  absolut break condition
   DEPER  =   0.30     relativ break condition  

   TIME   =   0.40     timestep for ELM

  volume/ion in A,a.u.               =      20.01       135.05
  Fermi-wavevector in a.u.,A,eV,Ry     =   0.957176  1.808800 12.465458  0.916185
  Thomas-Fermi vector in A             =   2.086170
 
 Write flags
   LWAVE        =      T    write WAVECAR
   LDOWNSAMPLE  =      F    k-point downsampling of WAVECAR
   LCHARG       =      T    write CHGCAR
   LVTOT        =      F    write LOCPOT, total local potential
   LVHAR        =      F    write LOCPOT, Hartree potential only
   LELF         =      F    write electronic localiz. function (ELF)
   LORBIT       =      0    0 simple, 1 ext, 2 COOP (PROOUT), +10 PAW based schemes


 Dipole corrections
   LMONO  =      F    monopole corrections only (constant potential shift)
   LDIPOL =      F    correct potential (dipole corrections)
   IDIPOL =      0    1-x, 2-y, 3-z, 4-all directions 
   EPSILON=  1.0000000 bulk dielectric constant

 Exchange correlation treatment:
   GGA     =    --    GGA type
   LEXCH   =     8    internal setting for exchange type
   VOSKOWN=      0    Vosko Wilk Nusair interpolation
   LHFCALC =     F    Hartree Fock is set to
   LHFONE  =     F    Hartree Fock one center treatment
   AEXX    =    0.0000 exact exchange contribution

 Linear response parameters
   LEPSILON=     F    determine dielectric tensor
   LRPA    =     F    only Hartree local field effects (RPA)
   LNABLA  =     F    use nabla operator in PAW spheres
   LVEL    =     F    velocity operator in full k-point grid
   LINTERFAST=   F  fast interpolation
   KINTER  =     0    interpolate to denser k-point grid
   CSHIFT  =0.1000    complex shift for real part using Kramers Kronig
   OMEGAMAX=  -1.0    maximum frequency
   DEG_THRESHOLD= 0.2000000E-02 threshold for treating states as degnerate
   RTIME   =   -0.100 relaxation time in fs
  (WPLASMAI=    0.000 imaginary part of plasma frequency in eV, 0.658/RTIME)
   DFIELD  = 0.0000000 0.0000000 0.0000000 field for delta impulse in time
 
 Orbital magnetization related:
   ORBITALMAG=     F  switch on orbital magnetization
   LCHIMAG   =     F  perturbation theory with respect to B field
   DQ        =  0.001000  dq finite difference perturbation B field
   LLRAUG    =     F  two centre corrections for induced B field



--------------------------------------------------------------------------------------------------------


 conjugate gradient relaxation of ions
 charge density and potential will be updated during run
 non-spin polarized calculation
 Variant of blocked Davidson
 Davidson routine will perform the subspace rotation
 perform sub-space diagonalisation
    after iterative eigenvector-optimisation
 modified Broyden-mixing scheme, WC =      100.0
 initial mixing is a Kerker type mixing with AMIX =  0.4000 and BMIX =      1.0000
 Hartree-type preconditioning will be used
 using additional bands            4
 reciprocal scheme for non local part
 use partial core corrections
 calculate Harris-corrections to forces 
   (improved forces if not selfconsistent)
 use gradient corrections 
 use of overlap-Matrix (Vanderbilt PP)
 Gauss-broadening in eV      SIGMA  =   0.20


--------------------------------------------------------------------------------------------------------


  energy-cutoff  :      350.00
  volume of cell :       40.03
      direct lattice vectors                 reciprocal lattice vectors
     0.000000000  2.715000000  2.715000000    -0.184162063  0.184162063  0.184162063
     2.715000000  0.000000000  2.715000000     0.184162063 -0.184162063  0.184162063
     2.715000000  2.715000000  0.000000000     0.184162063  0.184162063 -0.184162063

  length of vectors
     3.839589822  3.839589822  3.839589822     0.318978049  0.318978049  0.318978049


 
 k-points in units of 2pi/SCALE and weight: Automatic kpoint scheme                 
   0.00000000  0.00000000  0.00000000       0.001
  -0.02046245  0.02046245  0.02046245       0.011
  -0.04092490  0.04092490  0.04092490       0.011
  -0.06138735  0.06138735  0.06138735       0.011
  -0.08184981  0.08184981  0.08184981       0.011
  -0.00000000  0.00000000  0.04092490       0.008
  -0.02046245  0.02046245  0.06138735       0.033
  -0.04092490  0.04092490  0.08184981       0.033
  -0.06138735  0.06138735  0.10231226       0.033
   0.10231226 -0.10231226 -0.06138735       0.033
   0.08184981 -0.08184981 -0.04092490       0.033
   0.06138735 -0.06138735 -0.02046245       0.033
   0.04092490 -0.04092490  0.00000000       0.016
   0.00000000 -0.00000000  0.08184981       0.008
  -0.02046245  0.02046245  0.10231226       0.033
  -0.04092490  0.04092490  0.12277471       0.033
   0.12277471 -0.12277471 -0.04092490       0.033
   0.10231226 -0.10231226 -0.02046245       0.033
   0.08184981 -0.08184981 -0.00000000       0.016
   0.00000000  0.00000000  0.12277471       0.008
  -0.02046245  0.02046245  0.14323716       0.033
   0.14323716 -0.14323716 -0.02046245       0.033
   0.12277471 -0.12277471 -0.00000000       0.016
   0.00000000 -0.00000000  0.16369961       0.008
   0.16369961 -0.16369961 -0.00000000       0.016
   0.00000000  0.04092490  0.08184981       0.033
  -0.02046245  0.06138735  0.10231226       0.066
   0.14323716 -0.10231226 -0.06138735       0.066
  -0.00000000  0.04092490  0.12277471       0.033
   0.16369961 -0.12277471 -0.04092490       0.066
   0.14323716 -0.10231226 -0.02046245       0.066
   0.12277471 -0.08184981 -0.00000000       0.033
   0.18416206 -0.14323716 -0.02046245       0.033
   0.16369961 -0.12277471 -0.00000000       0.033
   0.18416206 -0.10231226 -0.02046245       0.033
 
 k-points in reciprocal lattice and weights: Automatic kpoint scheme                 
   0.00000000  0.00000000  0.00000000       0.001
   0.11111111  0.00000000  0.00000000       0.011
   0.22222222 -0.00000000  0.00000000       0.011
   0.33333333  0.00000000  0.00000000       0.011
   0.44444444 -0.00000000  0.00000000       0.011
   0.11111111  0.11111111  0.00000000       0.008
   0.22222222  0.11111111  0.00000000       0.033
   0.33333333  0.11111111  0.00000000       0.033
   0.44444444  0.11111111  0.00000000       0.033
  -0.44444444  0.11111111  0.00000000       0.033
  -0.33333333  0.11111111 -0.00000000       0.033
  -0.22222222  0.11111111  0.00000000       0.033
  -0.11111111  0.11111111 -0.00000000       0.016
   0.22222222  0.22222222  0.00000000       0.008
   0.33333333  0.22222222  0.00000000       0.033
   0.44444444  0.22222222  0.00000000       0.033
  -0.44444444  0.22222222  0.00000000       0.033
  -0.33333333  0.22222222  0.00000000       0.033
  -0.22222222  0.22222222 -0.00000000       0.016
   0.33333333  0.33333333  0.00000000       0.008
   0.44444444  0.33333333  0.00000000       0.033
  -0.44444444  0.33333333 -0.00000000       0.033
  -0.33333333  0.33333333  0.00000000       0.016
   0.44444444  0.44444444  0.00000000       0.008
  -0.44444444  0.44444444 -0.00000000       0.016
   0.33333333  0.22222222  0.11111111       0.033
   0.44444444  0.22222222  0.11111111       0.066
  -0.44444444  0.22222222  0.11111111       0.066
   0.44444444  0.33333333  0.11111111       0.033
  -0.44444444  0.33333333  0.11111111       0.066
  -0.33333333  0.33333333  0.11111111       0.066
  -0.22222222  0.33333333  0.11111111       0.033
  -0.44444444  0.44444444  0.11111111       0.033
  -0.33333333  0.44444444  0.11111111       0.033
  -0.33333333  0.44444444  0.22222222       0.033
 
 position of ions in fractional coordinates (direct lattice) 
   0.50000000  0.50000000  0.50000000
   0.75000000  0.75000000  0.75000000
 
 position of ions in cartesian coordinates  (Angst):
   2.71500000  2.71500000  2.71500000
   4.07250000  4.07250000  4.07250000
 


--------------------------------------------------------------------------------------------------------


 k-point  1 :   0.0000 0.0000 0.0000  plane waves:     609
 k-point  2 :   0.1111 0.0000 0.0000  plane waves:     585
 k-point  3 :   0.2222-0.0000 0.0000  plane waves:     589
 k-point  4 :   0.3333 0.0000 0.0000  plane waves:     601
 k-point  5 :   0.4444-0.0000 0.0000  plane waves:     595
 k-point  6 :   0.1111 0.1111 0.0000  plane waves:     589
 k-point  7 :   0.2222 0.1111 0.0000  plane waves:     588
 k-point  8 :   0.3333 0.1111 0.0000  plane waves:     596
 k-point  9 :   0.4444 0.1111 0.0000  plane waves:     594
 k-point 10 :  -0.4444 0.1111 0.0000  plane waves:     594
 k-point 11 :  -0.3333 0.1111-0.0000  plane waves:     595
 k-point 12 :  -0.2222 0.1111 0.0000  plane waves:     587
 k-point 13 :  -0.1111 0.1111-0.0000  plane waves:     582
 k-point 14 :   0.2222 0.2222 0.0000  plane waves:     584
 k-point 15 :   0.3333 0.2222 0.0000  plane waves:     597
 k-point 16 :   0.4444 0.2222 0.0000  plane waves:     599
 k-point 17 :  -0.4444 0.2222 0.0000  plane waves:     595
 k-point 18 :  -0.3333 0.2222 0.0000  plane waves:     595
 k-point 19 :  -0.2222 0.2222-0.0000  plane waves:     600
 k-point 20 :   0.3333 0.3333 0.0000  plane waves:     592
 k-point 21 :   0.4444 0.3333 0.0000  plane waves:     597
 k-point 22 :  -0.4444 0.3333-0.0000  plane waves:     599
 k-point 23 :  -0.3333 0.3333 0.0000  plane waves:     598
 k-point 24 :   0.4444 0.4444 0.0000  plane waves:     596
 k-point 25 :  -0.4444 0.4444-0.0000  plane waves:     608
 k-point 26 :   0.3333 0.2222 0.1111  plane waves:     595
 k-point 27 :   0.4444 0.2222 0.1111  plane waves:     595
 k-point 28 :  -0.4444 0.2222 0.1111  plane waves:     597
 k-point 29 :   0.4444 0.3333 0.1111  plane waves:     599
 k-point 30 :  -0.4444 0.3333 0.1111  plane waves:     594
 k-point 31 :  -0.3333 0.3333 0.1111  plane waves:     600
 k-point 32 :  -0.2222 0.3333 0.1111  plane waves:     594
 k-point 33 :  -0.4444 0.4444 0.1111  plane waves:     599
 k-point 34 :  -0.3333 0.4444 0.1111  plane waves:     599
 k-point 35 :  -0.3333 0.4444 0.2222  plane waves:     599

 maximum and minimum number of plane-waves per node :       609      582

 maximum number of plane-waves:       609
 maximum index in each direction: 
   IXMAX=    6   IYMAX=    5   IZMAX=    5
   IXMIN=   -6   IYMIN=   -6   IZMIN=   -6


 serial   3D FFT for wavefunctions
 parallel 3D FFT for charge:
    minimum data exchange during FFTs selected (reduces bandwidth)


 total amount of memory used by VASP MPI-rank0    32566. kBytes
=======================================================================

   base      :      30000. kBytes
   nonl-proj :       1399. kBytes
   fftplans  :        247. kBytes
   grid      :        561. kBytes
   one-center:          6. kBytes
   wavefun   :        353. kBytes
 
     INWAV:  cpu time    0.0000: real time    0.0003
 Broyden mixing: mesh for mixing (old mesh)
   NGX = 11   NGY = 11   NGZ = 11
  (NGX  = 36   NGY  = 36   NGZ  = 36)
  gives a total of   1331 points

 initial charge density was supplied:
 charge density of overlapping atoms calculated
 number of electron       8.0000000 magnetization 
 keeping initial charge density in first step


--------------------------------------------------------------------------------------------------------


 Maximum index for augmentation-charges          689 (set IRDMAX)


--------------------------------------------------------------------------------------------------------


 First call to EWALD:  gamma=   0.518
 Maximum number of real-space cells 3x 3x 3
 Maximum number of reciprocal cells 3x 3x 3

    FEWALD:  cpu time    0.0040: real time    0.0060


--------------------------------------- Iteration      1(   1)  ---------------------------------------


    POTLOK:  cpu time    0.0280: real time    0.0382
    SETDIJ:  cpu time    0.0040: real time    0.0046
     EDDAV:  cpu time    0.3080: real time    0.3108
       DOS:  cpu time    0.0000: real time    0.0020
    --------------------------------------------
      LOOP:  cpu time    0.3400: real time    0.3566

 eigenvalue-minimisations  :   560
 total energy-change (2. order) : 0.5453797E+01  (-0.2839602E+03)
 number of electron       8.0000000 magnetization 
 augmentation part        8.0000000 magnetization 

 Free energy of the ion-electron system (eV)
  ---------------------------------------------------
  alpha Z        PSCENC =         3.36414203
  Ewald energy   TEWEN  =      -228.56352493
  -Hartree energ DENC   =       -11.00108243
  -exchange      EXHF   =         0.00000000
  -V(xc)+E(xc)   XCENC  =       -18.60185131
  PAW double counting   =        65.95520812      -30.76852678
  entropy T*S    EENTRO =        -0.00835111
  eigenvalues    EBANDS =        18.94652945
  atomic energy  EATOM  =       206.13125414
  Solvation  Ediel_sol  =         0.00000000
  ---------------------------------------------------
  free energy    TOTEN  =         5.45379718 eV

  energy without entropy =        5.46214829  energy(sigma->0) =        5.45797273


--------------------------------------------------------------------------------------------------------




--------------------------------------- Iteration      1(   2)  ---------------------------------------


     EDDAV:  cpu time    0.4520: real time    0.4615
       DOS:  cpu time    0.0040: real time    0.0019
    --------------------------------------------
      LOOP:  cpu time    0.4560: real time    0.4632

 eigenvalue-minimisations  :   872
 total energy-change (2. order) :-0.1627910E+02  (-0.1533033E+02)
 number of electron       8.0000000 magnetization 
 augmentation part        8.0000000 magnetization 

 Free energy of the ion-electron system (eV)
  ---------------------------------------------------
  alpha Z        PSCENC =         3.36414203
  Ewald energy   TEWEN  =      -228.56352493
  -Hartree energ DENC   =       -11.00108243
  -exchange      EXHF   =         0.00000000
  -V(xc)+E(xc)   XCENC  =       -18.60185131
  PAW double counting   =        65.95520812      -30.76852678
  entropy T*S    EENTRO =        -0.00001192
  eigenvalues    EBANDS =         2.65908910
  atomic energy  EATOM  =       206.13125414
  Solvation  Ediel_sol  =         0.00000000
  ---------------------------------------------------
  free energy    TOTEN  =       -10.82530398 eV

  energy without entropy =      -10.82529206  energy(sigma->0) =      -10.82529802


--------------------------------------------------------------------------------------------------------




--------------------------------------- Iteration      1(   3)  ---------------------------------------


     EDDAV:  cpu time    0.3320: real time    0.3418
       DOS:  cpu time    0.0000: real time    0.0020
    --------------------------------------------
      LOOP:  cpu time    0.3320: real time    0.3437

 eigenvalue-minimisations  :   624
 total energy-change (2. order) :-0.1950799E+00  (-0.1950798E+00)
 number of electron       8.0000000 magnetization 
 augmentation part        8.0000000 magnetization 

 Free energy of the ion-electron system (eV)
  ---------------------------------------------------
  alpha Z        PSCENC =         3.36414203
  Ewald energy   TEWEN  =      -228.56352493
  -Hartree energ DENC   =       -11.00108243
  -exchange      EXHF   =         0.00000000
  -V(xc)+E(xc)   XCENC  =       -18.60185131
  PAW double counting   =        65.95520812      -30.76852678
  entropy T*S    EENTRO =        -0.00000877
  eigenvalues    EBANDS =         2.46400605
  atomic energy  EATOM  =       206.13125414
  Solvation  Ediel_sol  =         0.00000000
  ---------------------------------------------------
  free energy    TOTEN  =       -11.02038388 eV

  energy without entropy =      -11.02037512  energy(sigma->0) =      -11.02037950


--------------------------------------------------------------------------------------------------------




--------------------------------------- Iteration      1(   4)  ---------------------------------------


     EDDAV:  cpu time    0.5120: real time    0.5165
       DOS:  cpu time    0.0000: real time    0.0020
    --------------------------------------------
      LOOP:  cpu time    0.5120: real time    0.5186

 eigenvalue-minimisations  :   984
 total energy-change (2. order) :-0.1095988E-02  (-0.1095988E-02)
 number of electron       8.0000000 magnetization 
 augmentation part        8.0000000 magnetization 

 Free energy of the ion-electron system (eV)
  ---------------------------------------------------
  alpha Z        PSCENC =         3.36414203
  Ewald energy   TEWEN  =      -228.56352493
  -Hartree energ DENC   =       -11.00108243
  -exchange      EXHF   =         0.00000000
  -V(xc)+E(xc)   XCENC  =       -18.60185131
  PAW double counting   =        65.95520812      -30.76852678
  entropy T*S    EENTRO =        -0.00000874
  eigenvalues    EBANDS =         2.46291004
  atomic energy  EATOM  =       206.13125414
  Solvation  Ediel_sol  =         0.00000000
  ---------------------------------------------------
  free energy    TOTEN  =       -11.02147987 eV

  energy without entropy =      -11.02147113  energy(sigma->0) =      -11.02147550


--------------------------------------------------------------------------------------------------------




--------------------------------------- Iteration      1(   5)  ---------------------------------------


     EDDAV:  cpu time    0.3320: real time    0.3401
       DOS:  cpu time    0.0040: real time    0.0021
    CHARGE:  cpu time    0.0160: real time    0.0192
    MIXING:  cpu time    0.0040: real time    0.0019
    --------------------------------------------
      LOOP:  cpu time    0.3560: real time    0.3635

 eigenvalue-minimisations  :   624
 total energy-change (2. order) :-0.3416589E-06  (-0.3408621E-06)
 number of electron       7.9999993 magnetization 
 augmentation part       -0.4707122 magnetization 

 Broyden mixing:
  rms(total) = 0.30117E+00    rms(broyden)= 0.30116E+00
  rms(prec ) = 0.87371E+00
  weight for this iteration     100.00

 Free energy of the ion-electron system (eV)
  ---------------------------------------------------
  alpha Z        PSCENC =         3.36414203
  Ewald energy   TEWEN  =      -228.56352493
  -Hartree energ DENC   =       -11.00108243
  -exchange      EXHF   =         0.00000000
  -V(xc)+E(xc)   XCENC  =       -18.60185131
  PAW double counting   =        65.95520812      -30.76852678
  entropy T*S    EENTRO =        -0.00000874
  eigenvalues    EBANDS =         2.46290970
  atomic energy  EATOM  =       206.13125414
  Solvation  Ediel_sol  =         0.00000000
  ---------------------------------------------------
  free energy    TOTEN  =       -11.02148021 eV

  energy without entropy =      -11.02147147  energy(sigma->0) =      -11.02147584


--------------------------------------------------------------------------------------------------------




--------------------------------------- Iteration      1(   6)  ---------------------------------------


    POTLOK:  cpu time    0.0160: real time    0.0259
    SETDIJ:  cpu time    0.0040: real time    0.0045
     EDDAV:  cpu time    0.3520: real time    0.3485
       DOS:  cpu time    0.0000: real time    0.0020
    CHARGE:  cpu time    0.0160: real time    0.0183
    MIXING:  cpu time    0.0040: real time    0.0016
    --------------------------------------------
      LOOP:  cpu time    0.3920: real time    0.4006

 eigenvalue-minimisations  :   664
 total energy-change (2. order) : 0.1249828E+00  (-0.8266420E-02)
 number of electron       7.9999993 magnetization 
 augmentation part       -0.4648263 magnetization 

 Broyden mixing:
  rms(total) = 0.17838E+00    rms(broyden)= 0.17838E+00
  rms(prec ) = 0.51402E+00
  weight for this iteration     100.00

 eigenvalues of (default mixing * dielectric matrix)
  average eigenvalue GAMMA=   2.4320
  2.4320

 Free energy of the ion-electron system (eV)
  ---------------------------------------------------
  alpha Z        PSCENC =         3.36414203
  Ewald energy   TEWEN  =      -228.56352493
  -Hartree energ DENC   =       -12.50000047
  -exchange      EXHF   =         0.00000000
  -V(xc)+E(xc)   XCENC  =       -18.36420628
  PAW double counting   =        69.96533610      -34.88976695
  entropy T*S    EENTRO =        -0.00004113
  eigenvalues    EBANDS =         3.96031011
  atomic energy  EATOM  =       206.13125414
  Solvation  Ediel_sol  =         0.00000000
  ---------------------------------------------------
  free energy    TOTEN  =       -10.89649738 eV

  energy without entropy =      -10.89645625  energy(sigma->0) =      -10.89647682


--------------------------------------------------------------------------------------------------------




--------------------------------------- Iteration      1(   7)  ---------------------------------------


    POTLOK:  cpu time    0.0200: real time    0.0275
    SETDIJ:  cpu time    0.0040: real time    0.0045
     EDDAV:  cpu time    0.3720: real time    0.3748
       DOS:  cpu time    0.0040: real time    0.0020
    CHARGE:  cpu time    0.0160: real time    0.0178
    MIXING:  cpu time    0.0000: real time    0.0015
    --------------------------------------------
      LOOP:  cpu time    0.4160: real time    0.4280

 eigenvalue-minimisations  :   720
 total energy-change (2. order) : 0.5699837E-01  (-0.1517897E-01)
 number of electron       7.9999993 magnetization 
 augmentation part       -0.4577555 magnetization 

 Broyden mixing:
  rms(total) = 0.15419E-01    rms(broyden)= 0.15419E-01
  rms(prec ) = 0.40146E-01
  weight for this iteration     100.00

 eigenvalues of (default mixing * dielectric matrix)
  average eigenvalue GAMMA=   2.4613
  2.4613  2.4613

 Free energy of the ion-electron system (eV)
  ---------------------------------------------------
  alpha Z        PSCENC =         3.36414203
  Ewald energy   TEWEN  =      -228.56352493
  -Hartree energ DENC   =       -14.90718615
  -exchange      EXHF   =         0.00000000
  -V(xc)+E(xc)   XCENC  =       -17.97506325
  PAW double counting   =        75.26700347      -40.33326828
  entropy T*S    EENTRO =        -0.00020516
  eigenvalues    EBANDS =         6.17734912
  atomic energy  EATOM  =       206.13125414
  Solvation  Ediel_sol  =         0.00000000
  ---------------------------------------------------
  free energy    TOTEN  =       -10.83949902 eV

  energy without entropy =      -10.83929385  energy(sigma->0) =      -10.83939643


--------------------------------------------------------------------------------------------------------




--------------------------------------- Iteration      1(   8)  ---------------------------------------


    POTLOK:  cpu time    0.0200: real time    0.0258
    SETDIJ:  cpu time    0.0040: real time    0.0045
     EDDAV:  cpu time    0.3240: real time    0.3214
       DOS:  cpu time    0.0000: real time    0.0024
    CHARGE:  cpu time    0.0160: real time    0.0178
    MIXING:  cpu time    0.0040: real time    0.0015
    --------------------------------------------
      LOOP:  cpu time    0.3680: real time    0.3734

 eigenvalue-minimisations  :   608
 total energy-change (2. order) :-0.1330160E-02  (-0.4236405E-03)
 number of electron       7.9999993 magnetization 
 augmentation part       -0.4587668 magnetization 

 Broyden mixing:
  rms(total) = 0.24933E-02    rms(broyden)= 0.24924E-02
  rms(prec ) = 0.83391E-02
  weight for this iteration     100.00

 eigenvalues of (default mixing * dielectric matrix)
  average eigenvalue GAMMA=   2.1179
  1.3672  2.7915  2.1949

 Free energy of the ion-electron system (eV)
  ---------------------------------------------------
  alpha Z        PSCENC =         3.36414203
  Ewald energy   TEWEN  =      -228.56352493
  -Hartree energ DENC   =       -14.87264423
  -exchange      EXHF   =         0.00000000
  -V(xc)+E(xc)   XCENC  =       -17.96677259
  PAW double counting   =        74.37445201      -39.41216315
  entropy T*S    EENTRO =        -0.00017057
  eigenvalues    EBANDS =         6.10459812
  atomic energy  EATOM  =       206.13125414
  Solvation  Ediel_sol  =         0.00000000
  ---------------------------------------------------
  free energy    TOTEN  =       -10.84082918 eV

  energy without entropy =      -10.84065860  energy(sigma->0) =      -10.84074389


--------------------------------------------------------------------------------------------------------




--------------------------------------- Iteration      1(   9)  ---------------------------------------


    POTLOK:  cpu time    0.0160: real time    0.0260
    SETDIJ:  cpu time    0.0040: real time    0.0045
     EDDAV:  cpu time    0.2560: real time    0.2524
       DOS:  cpu time    0.0000: real time    0.0019
    --------------------------------------------
      LOOP:  cpu time    0.2760: real time    0.2848

 eigenvalue-minimisations  :   424
 total energy-change (2. order) :-0.9127079E-04  (-0.1018122E-04)
 number of electron       7.9999993 magnetization 
 augmentation part       -0.4587668 magnetization 

 Free energy of the ion-electron system (eV)
  ---------------------------------------------------
  alpha Z        PSCENC =         3.36414203
  Ewald energy   TEWEN  =      -228.56352493
  -Hartree energ DENC   =       -14.91224126
  -exchange      EXHF   =         0.00000000
  -V(xc)+E(xc)   XCENC  =       -17.96021532
  PAW double counting   =        74.37182524      -39.40977761
  entropy T*S    EENTRO =        -0.00016985
  eigenvalues    EBANDS =         6.13778712
  atomic energy  EATOM  =       206.13125414
  Solvation  Ediel_sol  =         0.00000000
  ---------------------------------------------------
  free energy    TOTEN  =       -10.84092045 eV

  energy without entropy =      -10.84075059  energy(sigma->0) =      -10.84083552


--------------------------------------------------------------------------------------------------------




 average (electrostatic) potential at core
  the test charge radii are     0.9892
  (the norm of the test charge is              1.0000)
       1 -83.2476       2 -83.2476
 
 
 
 E-fermi :   6.1014     XC(G=0):  -9.4132     alpha+bet :-11.9845


 k-point     1 :       0.0000    0.0000    0.0000
  band No.  band energies     occupation 
      1      -6.1312      2.00000
      2       5.8297      1.94524
      3       5.8297      1.94524
      4       5.8297      1.94524
      5       8.3969      0.00000
      6       8.3969      0.00000
      7       8.3969      0.00000
      8       9.2064      0.00000

 k-point     2 :       0.1111    0.0000    0.0000
  band No.  band energies     occupation 
      1      -5.9697      2.00000
      2       4.4871      2.00000
      3       5.5924      1.99968
      4       5.5924      1.99968
      5       8.3791      0.00000
      6       8.7471      0.00000
      7       8.7471      0.00000
      8      10.3113      0.00000

 k-point     3 :       0.2222   -0.0000    0.0000
  band No.  band energies     occupation 
      1      -5.4949      2.00000
      2       2.4101      2.00000
      3       5.1684      2.00000
      4       5.1684      2.00000
      5       7.9676      0.00000
      6       9.2753      0.00000
      7       9.2753      0.00000
      8      12.2816      0.00000

 k-point     4 :       0.3333    0.0000    0.0000
  band No.  band energies     occupation 
      1      -4.7538      2.00000
      2       0.4971      2.00000
      3       4.8304      2.00000
      4       4.8304      2.00000
      5       7.5965      0.00000
      6       9.3402      0.00000
      7       9.3402      0.00000
      8      13.6993      0.00000

 k-point     5 :       0.4444   -0.0000    0.0000
  band No.  band energies     occupation 
      1      -3.9618      2.00000
      2      -0.8993      2.00000
      3       4.6545      2.00000
      4       4.6545      2.00000
      5       7.3966      0.00000
      6       9.1980      0.00000
      7       9.1980      0.00000
      8      13.5943      0.00000

 k-point     6 :       0.1111    0.1111    0.0000
  band No.  band energies     occupation 
      1      -5.9154      2.00000
      2       4.7210      2.00000
      3       5.1526      2.00000
      4       5.1526      2.00000
      5       7.9424      0.00000
      6       9.3393      0.00000
      7       9.3393      0.00000
      8      10.1386      0.00000

 k-point     7 :       0.2222    0.1111    0.0000
  band No.  band energies     occupation 
      1      -5.5430      2.00000
      2       3.0343      2.00000
      3       4.6790      2.00000
      4       4.8179      2.00000
      5       8.0332      0.00000
      6       9.3766      0.00000
      7      10.0533      0.00000
      8      10.7431      0.00000

 k-point     8 :       0.3333    0.1111    0.0000
  band No.  band energies     occupation 
      1      -4.8818      2.00000
      2       1.1252      2.00000
      3       4.3123      2.00000
      4       4.3740      2.00000
      5       8.1573      0.00000
      6       9.3378      0.00000
      7      10.2183      0.00000
      8      11.1731      0.00000

 k-point     9 :       0.4444    0.1111    0.0000
  band No.  band energies     occupation 
      1      -4.0547      2.00000
      2      -0.4663      2.00000
      3       3.8762      2.00000
      4       4.2920      2.00000
      5       8.0386      0.00000
      6       9.2345      0.00000
      7       9.9344      0.00000
      8      12.6211      0.00000

 k-point    10 :      -0.4444    0.1111    0.0000
  band No.  band energies     occupation 
      1      -3.6753      2.00000
      2      -1.0393      2.00000
      3       3.6169      2.00000
      4       4.4321      2.00000
      5       8.0472      0.00000
      6       9.2522      0.00000
      7       9.6695      0.00000
      8      14.0100      0.00000

 k-point    11 :      -0.3333    0.1111   -0.0000
  band No.  band energies     occupation 
      1      -4.3334      2.00000
      2       0.0105      2.00000
      3       3.5824      2.00000
      4       4.7627      2.00000
      5       8.2380      0.00000
      6       9.4757      0.00000
      7       9.5490      0.00000
      8      13.2424      0.00000

 k-point    12 :      -0.2222    0.1111    0.0000
  band No.  band energies     occupation 
      1      -5.1329      2.00000
      2       1.7415      2.00000
      3       3.8141      2.00000
      4       5.2126      2.00000
      5       8.5658      0.00000
      6       9.3424      0.00000
      7       9.6227      0.00000
      8      11.9301      0.00000

 k-point    13 :      -0.1111    0.1111   -0.0000
  band No.  band energies     occupation 
      1      -5.7028      2.00000
      2       3.5090      2.00000
      3       4.4645      2.00000
      4       5.6063      1.99954
      5       8.8408      0.00000
      6       8.8496      0.00000
      7       9.0503      0.00000
      8      11.2295      0.00000

 k-point    14 :       0.2222    0.2222    0.0000
  band No.  band energies     occupation 
      1      -5.2738      2.00000
      2       2.8135      2.00000
      3       4.1575      2.00000
      4       4.1575      2.00000
      5       7.1394      0.00000
      6       9.3895      0.00000
      7      11.1073      0.00000
      8      11.1073      0.00000

 k-point    15 :       0.3333    0.2222    0.0000
  band No.  band energies     occupation 
      1      -4.7040      2.00000
      2       1.4785      2.00000
      3       3.5319      2.00000
      4       3.8152      2.00000
      5       7.2940      0.00000
      6       9.0020      0.00000
      7      11.3568      0.00000
      8      11.6802      0.00000

 k-point    16 :       0.4444    0.2222    0.0000
  band No.  band energies     occupation 
      1      -3.9042      2.00000
      2       0.0046      2.00000
      3       2.7907      2.00000
      4       3.7173      2.00000
      5       7.4773      0.00000
      6      10.0232      0.00000
      7      11.1180      0.00000
      8      11.4849      0.00000

 k-point    17 :      -0.4444    0.2222    0.0000
  band No.  band energies     occupation 
      1      -3.2480      2.00000
      2      -0.9392      2.00000
      3       2.2703      2.00000
      4       3.8727      2.00000
      5       7.6284      0.00000
      6      10.8580      0.00000
      7      11.0992      0.00000
      8      12.0261      0.00000

 k-point    18 :      -0.3333    0.2222    0.0000
  band No.  band energies     occupation 
      1      -3.6611      2.00000
      2      -0.3600      2.00000
      3       2.0883      2.00000
      4       4.2540      2.00000
      5       8.0180      0.00000
      6      10.7627      0.00000
      7      10.8001      0.00000
      8      13.0516      0.00000

 k-point    19 :      -0.2222    0.2222   -0.0000
  band No.  band energies     occupation 
      1      -4.4847      2.00000
      2       0.8896      2.00000
      3       2.4728      2.00000
      4       4.7766      2.00000
      5       8.5547      0.00000
      6      10.1612      0.00000
      7      10.4888      0.00000
      8      11.7123      0.00000

 k-point    20 :       0.3333    0.3333    0.0000
  band No.  band energies     occupation 
      1      -4.2261      2.00000
      2       0.8215      2.00000
      3       3.4140      2.00000
      4       3.4140      2.00000
      5       6.5574      0.00126
      6       7.8222      0.00000
      7      13.0992      0.00000
      8      13.0992      0.00000

 k-point    21 :       0.4444    0.3333    0.0000
  band No.  band energies     occupation 
      1      -3.4867      2.00000
      2      -0.2299      2.00000
      3       2.6872      2.00000
      4       3.2567      2.00000
      5       6.7993      0.00000
      6       7.8706      0.00000
      7      13.4096      0.00000
      8      13.4435      0.00000

 k-point    22 :      -0.4444    0.3333   -0.0000
  band No.  band energies     occupation 
      1      -2.6913      2.00000
      2      -1.1288      2.00000
      3       1.7814      2.00000
      4       3.3641      2.00000
      5       6.9961      0.00000
      6       9.4759      0.00000
      7      13.0643      0.00000
      8      13.2037      0.00000

 k-point    23 :      -0.3333    0.3333    0.0000
  band No.  band energies     occupation 
      1      -2.8655      2.00000
      2      -0.9386      2.00000
      3       1.4179      2.00000
      4       3.7197      2.00000
      5       7.3977      0.00000
      6      11.6305      0.00000
      7      12.3133      0.00000
      8      12.9130      0.00000

 k-point    24 :       0.4444    0.4444    0.0000
  band No.  band energies     occupation 
      1      -2.8111      2.00000
      2      -1.0950      2.00000
      3       3.0282      2.00000
      4       3.0282      2.00000
      5       6.4129      0.02761
      6       6.8120      0.00000
      7      15.1857      0.00000
      8      15.1857      0.00000

 k-point    25 :      -0.4444    0.4444   -0.0000
  band No.  band energies     occupation 
      1      -2.0378      2.00000
      2      -1.8683      2.00000
      3       2.4114      2.00000
      4       3.0658      2.00000
      5       6.6390      0.00014
      6       7.4718      0.00000
      7      15.0643      0.00000
      8      15.4055      0.00000

 k-point    26 :       0.3333    0.2222    0.1111
  band No.  band energies     occupation 
      1      -5.0730      2.00000
      2       2.0427      2.00000
      3       3.4615      2.00000
      4       4.6651      2.00000
      5       8.2114      0.00000
      6       9.6662      0.00000
      7      10.2244      0.00000
      8      10.8615      0.00000

 k-point    27 :       0.4444    0.2222    0.1111
  band No.  band energies     occupation 
      1      -4.3370      2.00000
      2       0.5513      2.00000
      3       2.8548      2.00000
      4       4.2270      2.00000
      5       8.6008      0.00000
      6       9.4426      0.00000
      7      10.6237      0.00000
      8      11.3003      0.00000

 k-point    28 :      -0.4444    0.2222    0.1111
  band No.  band energies     occupation 
      1      -3.5396      2.00000
      2      -0.7392      2.00000
      3       2.6627      2.00000
      4       3.9032      2.00000
      5       8.7016      0.00000
      6       9.0295      0.00000
      7      11.2469      0.00000
      8      12.3668      0.00000

 k-point    29 :       0.4444    0.3333    0.1111
  band No.  band energies     occupation 
      1      -4.0517      2.00000
      2       0.5176      2.00000
      3       2.7495      2.00000
      4       3.4407      2.00000
      5       7.6553      0.00000
      6       8.6602      0.00000
      7      11.2854      0.00000
      8      13.0080      0.00000

 k-point    30 :      -0.4444    0.3333    0.1111
  band No.  band energies     occupation 
      1      -3.2240      2.00000
      2      -0.5674      2.00000
      3       2.0846      2.00000
      4       3.1342      2.00000
      5       8.0586      0.00000
      6       9.7575      0.00000
      7      10.8462      0.00000
      8      13.4104      0.00000

 k-point    31 :      -0.3333    0.3333    0.1111
  band No.  band energies     occupation 
      1      -2.8580      2.00000
      2      -0.9940      2.00000
      3       1.6975      2.00000
      4       3.2469      2.00000
      5       8.3507      0.00000
      6      10.3539      0.00000
      7      11.8975      0.00000
      8      12.4602      0.00000

 k-point    32 :      -0.2222    0.3333    0.1111
  band No.  band energies     occupation 
      1      -3.5600      2.00000
      2      -0.1914      2.00000
      3       1.8447      2.00000
      4       3.6844      2.00000
      5       8.8646      0.00000
      6       9.8574      0.00000
      7      10.7186      0.00000
      8      12.7605      0.00000

 k-point    33 :      -0.4444    0.4444    0.1111
  band No.  band energies     occupation 
      1      -2.6946      2.00000
      2      -1.1107      2.00000
      3       2.4619      2.00000
      4       2.6716      2.00000
      5       7.4789      0.00000
      6       7.7889      0.00000
      7      13.0620      0.00000
      8      14.9587      0.00000

 k-point    34 :      -0.3333    0.4444    0.1111
  band No.  band energies     occupation 
      1      -2.1709      2.00000
      2      -1.5723      2.00000
      3       1.7367      2.00000
      4       2.7600      2.00000
      5       7.8499      0.00000
      6       9.4932      0.00000
      7      12.5121      0.00000
      8      12.7687      0.00000

 k-point    35 :      -0.3333    0.4444    0.2222
  band No.  band energies     occupation 
      1      -2.4174      2.00000
      2      -1.2569      2.00000
      3       1.7756      2.00000
      4       2.4184      2.00000
      5       9.6835      0.00000
      6       9.7706      0.00000
      7      10.4737      0.00000
      8      12.2146      0.00000


--------------------------------------------------------------------------------------------------------


 soft charge-density along one line, spin component           1
         0         1         2         3         4         5         6         7         8         9
 total charge-density along one line
 
 pseudopotential strength for first ion, spin component:           1
 18.414  -0.001  -0.000  -0.000  -0.000   0.000   0.000   0.000
 -0.001   0.006   0.000   0.000   0.000  -0.000  -0.000  -0.000
 -0.000   0.000   4.178  -0.000  -0.000  -0.005   0.000   0.000
 -0.000   0.000  -0.000   4.178  -0.000   0.000  -0.005   0.000
 -0.000   0.000  -0.000  -0.000   4.178   0.000   0.000  -0.005
  0.000  -0.000  -0.005   0.000   0.000   0.005  -0.000  -0.000
  0.000  -0.000   0.000  -0.005   0.000  -0.000   0.005  -0.000
  0.000  -0.000   0.000   0.000  -0.005  -0.000  -0.000   0.005
 total augmentation occupancy for first ion, spin component:           1
  1.492  -0.793  -0.000  -0.000  -0.000   0.000   0.000   0.000
 -0.793   0.791   0.000   0.000   0.000   0.000   0.000   0.000
 -0.000   0.000   1.031  -0.000   0.000  -0.572   0.000  -0.000
 -0.000   0.000  -0.000   1.031   0.000   0.000  -0.572  -0.000
 -0.000   0.000   0.000   0.000   1.031  -0.000  -0.000  -0.572
  0.000   0.000  -0.572   0.000  -0.000   0.374  -0.000   0.000
  0.000   0.000   0.000  -0.572  -0.000  -0.000   0.374   0.000
  0.000   0.000  -0.000  -0.000  -0.572   0.000   0.000   0.374


------------------------ aborting loop because EDIFF is reached ----------------------------------------


    CHARGE:  cpu time    0.0160: real time    0.0190
    FORLOC:  cpu time    0.0040: real time    0.0006
    FORNL :  cpu time    0.0120: real time    0.0125
    STRESS:  cpu time    0.1320: real time    0.1342
    FORCOR:  cpu time    0.0160: real time    0.0152
    FORHAR:  cpu time    0.0040: real time    0.0035
    MIXING:  cpu time    0.0000: real time    0.0012
    OFIELD:  cpu time    0.0000: real time    0.0003

  FORCE on cell =-STRESS in cart. coord.  units (eV):
  Direction    XX          YY          ZZ          XY          YZ          ZX
  --------------------------------------------------------------------------------------
  Alpha Z     3.36414     3.36414     3.36414
  Ewald     -76.18788   -76.18788   -76.18788    -0.00000    -0.00000     0.00000
  Hartree     4.97381     4.97381     4.97381     0.00000     0.00000     0.00000
  E(xc)     -25.37023   -25.37023   -25.37023    -0.00000    -0.00000    -0.00000
  Local     -29.24054   -29.24054   -29.24054     0.00004     0.00004     0.00004
  n-local    78.94014    80.19053    74.46411     2.23650    -1.26760     0.58809
  augment   -11.65239   -11.65239   -11.65239    -0.00003    -0.00003    -0.00003
  Kinetic    58.83322    56.22860    55.14762     3.55246    -0.67812     1.01272
  Fock        0.00000     0.00000     0.00000     0.00000     0.00000     0.00000
  -------------------------------------------------------------------------------------
  Total       0.48833     0.48833     0.48833    -0.00000    -0.00000     0.00000
  in kB      19.54701    19.54701    19.54701    -0.00000    -0.00000     0.00000
  external pressure =       19.55 kB  Pullay stress =        0.00 kB


 VOLUME and BASIS-vectors are now :
 -----------------------------------------------------------------------------
  energy-cutoff  :      350.00
  volume of cell :       40.03
      direct lattice vectors                 reciprocal lattice vectors
     0.000000000  2.715000000  2.715000000    -0.184162063  0.184162063  0.184162063
     2.715000000  0.000000000  2.715000000     0.184162063 -0.184162063  0.184162063
     2.715000000  2.715000000  0.000000000     0.184162063  0.184162063 -0.184162063

  length of vectors
     3.839589822  3.839589822  3.839589822     0.318978049  0.318978049  0.318978049


 FORCES acting on ions
    electron-ion (+dipol)            ewald-force                    non-local-force                 convergence-correction
 -----------------------------------------------------------------------------------------------
   0.135E-05 0.135E-05 0.138E-05   -.476E-15 -.149E-14 0.391E-14   0.275E-16 -.253E-18 -.556E-18   -.424E-06 -.424E-06 -.424E-06
   -.135E-05 -.135E-05 -.138E-05   0.623E-15 0.106E-14 -.375E-14   -.105E-16 -.105E-16 -.736E-17   0.424E-06 0.424E-06 0.424E-06
 -----------------------------------------------------------------------------------------------
   -.462E-13 -.750E-13 -.709E-13   0.147E-15 -.426E-15 0.164E-15   0.170E-16 -.108E-16 -.792E-17   -.269E-14 -.328E-14 0.517E-15
 
 
 POSITION                                       TOTAL-FORCE (eV/Angst)
 -----------------------------------------------------------------------------------
      2.71500      2.71500      2.71500        -0.000000     -0.000000     -0.000000
      4.07250      4.07250      4.07250         0.000000      0.000000      0.000000
 -----------------------------------------------------------------------------------
    total drift:                               -0.000000     -0.000000     -0.000000


--------------------------------------------------------------------------------------------------------



  FREE ENERGIE OF THE ION-ELECTRON SYSTEM (eV)
  ---------------------------------------------------
  free  energy   TOTEN  =       -10.84092045 eV

  energy  without entropy=      -10.84075059  energy(sigma->0) =      -10.84083552
 


--------------------------------------------------------------------------------------------------------


    POTLOK:  cpu time    0.0280: real time    0.0384


--------------------------------------------------------------------------------------------------------




--------------------------------------------------------------------------------------------------------


  
 reached required accuracy - stopping structural energy minimisation
 writing wavefunctions
     LOOP+:  cpu time    4.2120: real time    5.0203
    4ORBIT:  cpu time    0.0000: real time    0.0000

 total amount of memory used by VASP MPI-rank0    32566. kBytes
=======================================================================

   base      :      30000. kBytes
   nonl-proj :       1399. kBytes
   fftplans  :        247. kBytes
   grid      :        561. kBytes
   one-center:          6. kBytes
   wavefun   :        353. kBytes
 
  
  
 General timing and accounting informations for this job:
 ========================================================
  
                  Total CPU time used (sec):        8.988
                            User time (sec):        7.260
                          System time (sec):        1.728
                         Elapsed time (sec):       11.374
  
                   Maximum memory used (kb):        9808.
                   Average memory used (kb):           0.
  
                          Minor page faults:        38182
                          Major page faults:           33
                 Voluntary context switches:        38880
