    2    2   15    1
  0.2001288E+02  0.3839590E-09  0.3839590E-09  0.3839590E-09  0.5000000E-15
  1.000000000000000E-004
  CAR 
 unknown system                          
      8     56      8
 
  0.0000000E+00  0.0000000E+00  0.0000000E+00  0.7513148E-03
    1       -6.194121   1.000000
    2        5.642642   0.982673
    3        5.642660   0.982667
    4        5.642660   0.982667
    5        8.202428   0.000000
    6        8.202447   0.000000
    7        8.202447   0.000000
    8        8.782558   0.000000
 
  0.9090909E-01 -0.1591537E-17  0.3465480E-17  0.6010518E-02
    1       -6.087636   1.000000
    2        4.655365   1.000000
    3        5.477720   0.999478
    4        5.477736   0.999478
    5        8.194143   0.000000
    6        8.445347   0.000000
    7        8.445365   0.000000
    8        9.605490   0.000000
 
  0.1818182E+00 -0.3183074E-17  0.6930960E-17  0.6010518E-02
    1       -5.772462   1.000000
    2        2.989245   1.000000
    3        5.139817   1.000000
    4        5.139833   1.000000
    5        7.872500   0.000000
    6        8.914398   0.000000
    7        8.914417   0.000000
    8       11.203169   0.000000
 
  0.2727273E+00  0.1406449E-16  0.1931292E-16  0.6010518E-02
    1       -5.265065   1.000000
    2        1.349252   1.000000
    3        4.818869   1.000000
    4        4.818886   1.000000
    5        7.528465   0.000000
    6        9.169537   0.000000
    7        9.169566   0.000000
    8       12.772890   0.000000
 
  0.3636364E+00 -0.6366148E-17  0.1386192E-16  0.6010518E-02
    1       -4.617007   1.000000
    2       -0.087315   1.000000
    3        4.588564   1.000000
    4        4.588581   1.000000
    5        7.269277   0.000000
    6        9.120954   0.000000
    7        9.120987   0.000000
    8       13.488050   0.000000
 
  0.4545455E+00  0.9587941E-18  0.8410920E-17  0.6010518E-02
    1       -4.020352   1.000000
    2       -1.084805   1.000000
    3        4.471092   1.000000
    4        4.471109   1.000000
    5        7.133054   0.000000
    6        9.020699   0.000000
    7        9.020732   0.000000
    8       13.370514   0.000000
 
  0.9090909E-01  0.9090909E-01  0.7557855E-17  0.4507889E-02
    1       -6.051889   1.000000
    2        4.822860   1.000000
    3        5.158136   1.000000
    4        5.158148   1.000000
    5        7.887511   0.000000
    6        8.863479   0.000000
    7        8.863491   0.000000
    8        9.532823   0.000000
 
  0.1818182E+00  0.9090909E-01  0.7213366E-17  0.1803156E-01
    1       -5.805560   1.000000
    2        3.477355   1.000000
    3        4.765106   1.000000
    4        4.939678   1.000000
    5        7.921109   0.000000
    6        8.887863   0.000000
    7        9.449593   0.000000
    8       10.520983   0.000000
 
  0.2727273E+00  0.9090909E-01  0.5717536E-17  0.1803156E-01
    1       -5.359702   1.000000
    2        1.875626   1.000000
    3        4.448776   1.000000
    4        4.569091   1.000000
    5        8.029334   0.000000
    6        8.895008   0.000000
    7        9.804947   0.000000
    8       10.989412   0.000000
 
  0.3636364E+00  0.9090909E-01  0.2306080E-16  0.1803156E-01
    1       -4.748730   1.000000
    2        0.387072   1.000000
    3        4.191042   1.000000
    4        4.262006   1.000000
    5        7.866296   0.000000
    6        8.953433   0.000000
    7        9.745419   0.000000
    8       11.758951   0.000000
 
  0.4545455E+00  0.9090909E-01  0.7687187E-17  0.1803156E-01
    1       -4.092794   1.000000
    2       -0.786746   1.000000
    3        3.895920   1.000000
    4        4.221107   1.000000
    5        7.722249   0.000000
    6        8.922804   0.000000
    7        9.517368   0.000000
    8       12.983610   0.000000
 
 -0.4545455E+00  0.9090909E-01 -0.2682883E-16  0.1803156E-01
    1       -3.829925   1.000000
    2       -1.179949   1.000000
    3        3.720883   1.000000
    4        4.320298   1.000000
    5        7.693044   0.000000
    6        8.981682   0.000000
    7        9.335764   0.000000
    8       13.676847   0.000000
 
 -0.3636364E+00  0.9090909E-01 -0.4663035E-17  0.1803156E-01
    1       -4.301645   1.000000
    2       -0.445429   1.000000
    3        3.686675   1.000000
    4        4.544384   1.000000
    5        7.792383   0.000000
    6        9.171740   0.000000
    7        9.254860   0.000000
    8       13.359661   0.000000
 
 -0.2727273E+00  0.9090909E-01 -0.1011403E-16  0.1803156E-01
    1       -4.968116   1.000000
    2        0.863295   1.000000
    3        3.809068   1.000000
    4        4.864829   1.000000
    5        8.007581   0.000000
    6        9.180362   0.000000
    7        9.376161   0.000000
    8       12.301844   0.000000
 
 -0.1818182E+00  0.9090909E-01 -0.6648554E-17  0.1803156E-01
    1       -5.530319   1.000000
    2        2.393605   1.000000
    3        4.105295   1.000000
    4        5.225035   1.000000
    5        8.301350   0.000000
    6        8.892988   0.000000
    7        9.243178   0.000000
    8       11.403063   0.000000
 
 -0.9090909E-01  0.9090909E-01 -0.3183074E-17  0.9015778E-02
    1       -5.911362   1.000000
    2        3.848761   1.000000
    3        4.666069   1.000000
    4        5.498755   0.999125
    5        8.495510   0.000000
    6        8.533381   0.000000
    7        8.659545   0.000000
    8       10.498216   0.000000
 
  0.1818182E+00  0.1818182E+00  0.1511571E-16  0.4507889E-02
    1       -5.628126   1.000000
    2        3.321268   1.000000
    3        4.336488   1.000000
    4        4.336499   1.000000
    5        7.248597   0.000000
    6        9.726736   0.000000
    7       10.197149   0.000000
    8       10.197163   0.000000
 
  0.2727273E+00  0.1818182E+00  0.6503012E-17  0.1803156E-01
    1       -5.247272   1.000000
    2        2.177113   1.000000
    3        3.920438   1.000000
    4        3.996969   1.000000
    5        7.300677   0.000000
    6        9.333418   0.000000
    7       10.483062   0.000000
    8       10.780156   0.000000
 
  0.3636364E+00  0.1818182E+00  0.1442673E-16  0.1803156E-01
    1       -4.685749   1.000000
    2        0.824762   1.000000
    3        3.392568   1.000000
    4        3.801870   1.000000
    5        7.537169   0.000000
    6        9.689991   0.000000
    7       10.286116   0.000000
    8       10.867420   0.000000
 
  0.4545455E+00  0.1818182E+00  0.2680869E-16  0.1803156E-01
    1       -4.018215   1.000000
    2       -0.393976   1.000000
    3        2.921208   1.000000
    4        3.768731   1.000000
    5        7.577456   0.000000
    6       10.050948   0.000000
    7       10.621694   0.000000
    8       10.899940   0.000000
 
 -0.4545455E+00  0.1818182E+00  0.1012563E-16  0.1803156E-01
    1       -3.546853   1.000000
    2       -1.089454   1.000000
    3        2.590064   1.000000
    4        3.897046   1.000000
    5        7.672398   0.000000
    6        9.925290   0.000000
    7       10.332794   0.000000
    8       12.511347   0.000000
 
 -0.3636364E+00  0.1818182E+00 -0.1329711E-16  0.1803156E-01
    1       -3.825357   1.000000
    2       -0.686253   1.000000
    3        2.441147   1.000000
    4        4.171091   1.000000
    5        7.917596   0.000000
    6        9.921516   0.000000
    7       10.108664   0.000000
    8       13.319610   0.000000
 
 -0.2727273E+00  0.1818182E+00 -0.9151488E-18  0.1803156E-01
    1       -4.483976   1.000000
    2        0.411579   1.000000
    3        2.525196   1.000000
    4        4.552524   1.000000
    5        8.273443   0.000000
    6        9.858388   0.000000
    7        9.977985   0.000000
    8       11.930865   0.000000
 
 -0.1818182E+00  0.1818182E+00 -0.6366148E-17  0.9015778E-02
    1       -5.089902   1.000000
    2        1.586924   1.000000
    3        3.005091   1.000000
    4        4.960455   1.000000
    5        8.587603   0.000000
    6        9.369001   0.000000
    7        9.669584   0.000000
    8       11.258484   0.000000
 
  0.2727273E+00  0.2727273E+00  0.2267357E-16  0.4507889E-02
    1       -4.931038   1.000000
    2        1.713189   1.000000
    3        3.623923   1.000000
    4        3.623934   1.000000
    5        6.666969   0.000000
    6        8.463263   0.000000
    7       11.746682   0.000000
    8       11.746697   0.000000
 
  0.3636364E+00  0.2727273E+00  0.2858693E-16  0.1803156E-01
    1       -4.425761   1.000000
    2        0.770006   1.000000
    3        3.094875   1.000000
    4        3.394505   1.000000
    5        6.799547   0.000000
    6        8.176244   0.000000
    7       12.026380   0.000000
    8       12.216693   0.000000
 
  0.4545455E+00  0.2727273E+00  0.1817462E-16  0.1803156E-01
    1       -3.777426   1.000000
    2       -0.244383   1.000000
    3        2.379079   1.000000
    4        3.332956   1.000000
    5        7.002138   0.000000
    6        8.916548   0.000000
    7       11.863478   0.000000
    8       12.087368   0.000000
 
 -0.4545455E+00  0.2727273E+00  0.1141417E-16  0.1803156E-01
    1       -3.175880   1.000000
    2       -1.031526   1.000000
    3        1.815136   1.000000
    4        3.443622   1.000000
    5        7.135568   0.000000
    6       10.384407   0.000000
    7       11.690972   0.000000
    8       11.766634   0.000000
 
 -0.3636364E+00  0.2727273E+00  0.5824396E-17  0.1803156E-01
    1       -3.231788   1.000000
    2       -0.953123   1.000000
    3        1.535441   1.000000
    4        3.713871   1.000000
    5        7.419609   0.000000
    6       11.409822   0.000000
    7       11.437060   0.000000
    8       12.312167   0.000000
 
 -0.2727273E+00  0.2727273E+00 -0.2738218E-16  0.9015778E-02
    1       -3.854214   1.000000
    2       -0.205546   1.000000
    3        1.695079   1.000000
    4        4.110025   1.000000
    5        7.853510   0.000000
    6       10.808426   0.000000
    7       11.167180   0.000000
    8       11.973235   0.000000
 
  0.3636364E+00  0.3636364E+00  0.3023142E-16  0.4507889E-02
    1       -3.975785   1.000000
    2        0.114795   1.000000
    3        3.122866   1.000000
    4        3.122876   1.000000
    5        6.319159   0.003778
    6        7.340680   0.000000
    7       13.396774   0.000000
    8       13.396790   0.000000
 
  0.4545455E+00  0.3636364E+00  0.3729612E-16  0.1803156E-01
    1       -3.363893   1.000000
    2       -0.690018   1.000000
    3        2.598733   1.000000
    4        3.018619   1.000000
    5        6.527769   0.000017
    6        7.348823   0.000000
    7       13.717714   0.000000
    8       13.725897   0.000000
 
 -0.4545455E+00  0.3636364E+00 -0.2497548E-16  0.1803156E-01
    1       -2.702011   1.000000
    2       -1.396535   1.000000
    3        1.836432   1.000000
    4        3.090549   1.000000
    5        6.697831   0.000000
    6        8.518007   0.000000
    7       13.444737   0.000000
    8       13.579496   0.000000
 
 -0.3636364E+00  0.3636364E+00 -0.1273230E-16  0.9015778E-02
    1       -2.641983   1.000000
    2       -1.426119   1.000000
    3        1.360529   1.000000
    4        3.331392   1.000000
    5        6.971249   0.000000
    6       10.226216   0.000000
    7       12.765452   0.000000
    8       13.308254   0.000000
 
  0.4545455E+00  0.4545455E+00  0.3778928E-16  0.4507889E-02
    1       -2.788617   1.000000
    2       -1.407527   1.000000
    3        2.867076   1.000000
    4        2.867086   1.000000
    5        6.283720   0.007745
    6        6.611572   0.000001
    7       15.068843   0.000000
    8       15.068858   0.000000
 
 -0.4545455E+00  0.4545455E+00 -0.2569921E-16  0.9015778E-02
    1       -2.154115   1.000000
    2       -2.042062   1.000000
    3        2.435445   1.000000
    4        2.891755   1.000000
    5        6.464646   0.000108
    6        7.039723   0.000000
    7       14.983142   0.000000
    8       15.210739   0.000000
 
  0.2727273E+00  0.1818182E+00  0.9090909E-01  0.1803156E-01
    1       -5.492428   1.000000
    2        2.619780   1.000000
    3        3.838323   1.000000
    4        4.827372   1.000000
    5        7.979997   0.000000
    6        9.204601   0.000000
    7        9.993848   0.000000
    8       10.418782   0.000000
 
  0.3636364E+00  0.1818182E+00  0.9090909E-01  0.3606311E-01
    1       -4.987885   1.000000
    2        1.317156   1.000000
    3        3.279952   1.000000
    4        4.512645   1.000000
    5        8.286434   0.000000
    6        9.168271   0.000000
    7       10.326078   0.000000
    8       10.536713   0.000000
 
  0.4545455E+00  0.1818182E+00  0.9090909E-01  0.3606311E-01
    1       -4.341225   1.000000
    2       -0.006143   1.000000
    3        3.021807   1.000000
    4        4.174036   1.000000
    5        8.311982   0.000000
    6        8.989989   0.000000
    7       10.420236   0.000000
    8       11.369670   0.000000
 
 -0.4545455E+00  0.1818182E+00  0.9090909E-01  0.3606311E-01
    1       -3.739759   1.000000
    2       -0.970074   1.000000
    3        2.921221   1.000000
    4        3.967126   1.000000
    5        8.279529   0.000000
    6        8.801188   0.000000
    7       10.357038   0.000000
    8       12.818885   0.000000
 
  0.3636364E+00  0.2727273E+00  0.9090909E-01  0.1803156E-01
    1       -4.805265   1.000000
    2        1.337083   1.000000
    3        3.131685   1.000000
    4        3.836263   1.000000
    5        7.426061   0.000000
    6        8.953689   0.000000
    7       10.593957   0.000000
    8       11.632434   0.000000
 
  0.4545455E+00  0.2727273E+00  0.9090909E-01  0.3606311E-01
    1       -4.197881   1.000000
    2        0.271776   1.000000
    3        2.562795   1.000000
    4        3.528548   1.000000
    5        7.787181   0.000000
    6        9.363576   0.000000
    7       10.280583   0.000000
    8       12.024172   0.000000
 
 -0.4545455E+00  0.2727273E+00  0.9090909E-01  0.3606311E-01
    1       -3.537733   1.000000
    2       -0.720412   1.000000
    3        2.180734   1.000000
    4        3.375927   1.000000
    5        7.919551   0.000000
    6        9.898889   0.000000
    7       10.707593   0.000000
    8       11.979955   0.000000
 
 -0.3636364E+00  0.2727273E+00  0.9090909E-01  0.3606311E-01
    1       -3.277423   1.000000
    2       -1.061995   1.000000
    3        1.954287   1.000000
    4        3.463756   1.000000
    5        8.128877   0.000000
    6        9.634652   0.000000
    7       11.864845   0.000000
    8       12.384063   0.000000
 
 -0.2727273E+00  0.2727273E+00  0.9090909E-01  0.3606311E-01
    1       -3.773051   1.000000
    2       -0.386143   1.000000
    3        1.946771   1.000000
    4        3.754261   1.000000
    5        8.483503   0.000000
    6        9.447777   0.000000
    7       11.161540   0.000000
    8       11.805099   0.000000
 
 -0.1818182E+00  0.2727273E+00  0.9090909E-01  0.1803156E-01
    1       -4.436512   1.000000
    2        0.581113   1.000000
    3        2.321315   1.000000
    4        4.161653   1.000000
    5        8.909460   0.000000
    6        9.031671   0.000000
    7       10.291839   0.000000
    8       11.344387   0.000000
 
  0.4545455E+00  0.3636364E+00  0.9090909E-01  0.1803156E-01
    1       -3.868833   1.000000
    2       -0.020680   1.000000
    3        2.662470   1.000000
    4        3.048525   1.000000
    5        7.077169   0.000000
    6        7.932897   0.000000
    7       11.964079   0.000000
    8       13.366755   0.000000
 
 -0.4545455E+00  0.3636364E+00  0.9090909E-01  0.3606311E-01
    1       -3.199967   1.000000
    2       -0.832471   1.000000
    3        2.031813   1.000000
    4        2.873374   1.000000
    5        7.421755   0.000000
    6        8.735676   0.000000
    7       11.616041   0.000000
    8       13.722914   0.000000
 
 -0.3636364E+00  0.3636364E+00  0.9090909E-01  0.3606311E-01
    1       -2.741216   1.000000
    2       -1.322243   1.000000
    3        1.519982   1.000000
    4        2.987565   1.000000
    5        7.633934   0.000000
    6       10.294955   0.000000
    7       11.313401   0.000000
    8       12.901132   0.000000
 
 -0.2727273E+00  0.3636364E+00  0.9090909E-01  0.1803156E-01
    1       -3.121063   1.000000
    2       -0.927071   1.000000
    3        1.417454   1.000000
    4        3.305378   1.000000
    5        7.999729   0.000000
    6       10.702788   0.000000
    7       11.425408   0.000000
    8       12.315696   0.000000
 
 -0.4545455E+00  0.4545455E+00  0.9090909E-01  0.1803156E-01
    1       -2.717229   1.000000
    2       -1.406070   1.000000
    3        2.473782   1.000000
    4        2.593962   1.000000
    5        7.012156   0.000000
    6        7.283550   0.000000
    7       13.484409   0.000000
    8       14.867078   0.000000
 
 -0.3636364E+00  0.4545455E+00  0.9090909E-01  0.1803156E-01
    1       -2.222477   1.000000
    2       -1.845827   1.000000
    3        1.828267   1.000000
    4        2.665488   1.000000
    5        7.292146   0.000000
    6        8.529376   0.000000
    7       13.033961   0.000000
    8       13.263736   0.000000
 
 -0.4545455E+00  0.3636364E+00  0.1818182E+00  0.1803156E-01
    1       -3.564699   1.000000
    2       -0.408530   1.000000
    3        1.919348   1.000000
    4        3.072951   1.000000
    5        8.717348   0.000000
    6        9.372784   0.000000
    7        9.905813   0.000000
    8       13.265957   0.000000
 
 -0.3636364E+00  0.3636364E+00  0.1818182E+00  0.3606311E-01
    1       -2.941859   1.000000
    2       -1.099306   1.000000
    3        1.642876   1.000000
    4        2.758467   1.000000
    5        9.092295   0.000000
    6        9.438332   0.000000
    7       10.699161   0.000000
    8       12.550329   0.000000
 
 -0.3636364E+00  0.4545455E+00  0.1818182E+00  0.1803156E-01
    1       -2.536312   1.000000
    2       -1.450463   1.000000
    3        1.871679   1.000000
    4        2.248655   1.000000
    5        8.638366   0.000000
    6        8.848830   0.000000
    7       11.207801   0.000000
    8       12.786983   0.000000
 
 -0.2727273E+00  0.4545455E+00  0.1818182E+00  0.1803156E-01
    1       -2.341211   1.000000
    2       -1.612451   1.000000
    3        1.598147   1.000000
    4        2.284244   1.000000
    5        8.986841   0.000000
    6       10.269029   0.000000
    7       10.972771   0.000000
    8       10.985348   0.000000
