 running on    8 total cores
 distrk:  each k-point on    8 cores,    1 groups
 distr:  one band on    1 cores,    8 groups
 using from now: INCAR     
 vasp.5.4.4.18Apr17-6-g9f103f2a35 (build Dec 09 2018 21:25:21) complex          
  
 POSCAR found type information on POSCAR  Si
 POSCAR found :  1 types and       2 ions
 scaLAPACK will be used

 ----------------------------------------------------------------------------- 
|                                                                             |
|           W    W    AA    RRRRR   N    N  II  N    N   GGGG   !!!           |
|           W    W   A  A   R    R  NN   N  II  NN   N  G    G  !!!           |
|           W    W  A    A  R    R  N N  N  II  N N  N  G       !!!           |
|           W WW W  AAAAAA  RRRRR   N  N N  II  N  N N  G  GGG   !            |
|           WW  WW  A    A  R   R   N   NN  II  N   NN  G    G                |
|           W    W  A    A  R    R  N    N  II  N    N   GGGG   !!!           |
|                                                                             |
|      For optimal performance we recommend to set                            |
|        NCORE= 4 - approx SQRT( number of cores)                             |
|      NCORE specifies how many cores store one orbital (NPAR=cpu/NCORE).     |
|      This setting can  greatly improve the performance of VASP for DFT.     |
|      The default,   NCORE=1            might be grossly inefficient         |
|      on modern multi-core architectures or massively parallel machines.     |
|      Do your own testing !!!!                                               |
|      Unfortunately you need to use the default for GW and RPA calculations. |
|      (for HF NCORE is supported but not extensively tested yet)             |
|                                                                             |
 ----------------------------------------------------------------------------- 

 LDA part: xc-table for Pade appr. of Perdew
 POSCAR, INCAR and KPOINTS ok, starting setup
 FFT: planning ...
 WAVECAR not read
 entering main loop
       N       E                     dE             d eps       ncg     rms          rms(c)
DAV:   1     0.106794077346E+01    0.10679E+01   -0.23141E+03   920   0.453E+02
DAV:   2    -0.108833849296E+02   -0.11951E+02   -0.11496E+02  1440   0.634E+01
DAV:   3    -0.110022096759E+02   -0.11882E+00   -0.11882E+00  1080   0.812E+00
DAV:   4    -0.110026453830E+02   -0.43571E-03   -0.43571E-03  1536   0.522E-01
DAV:   5    -0.110026454560E+02   -0.73065E-07   -0.72643E-07  1072   0.649E-03    0.300E+00
DAV:   6    -0.108784467023E+02    0.12420E+00   -0.81672E-02  1064   0.149E+00    0.178E+00
DAV:   7    -0.108220247839E+02    0.56422E-01   -0.14984E-01  1120   0.214E+00    0.153E-01
DAV:   8    -0.108233186807E+02   -0.12939E-02   -0.39328E-03  1000   0.464E-01    0.247E-02
DAV:   9    -0.108234100605E+02   -0.91380E-04   -0.90885E-05   680   0.760E-02
   1 F= -.10823410E+02 E0= -.10823352E+02  d E =-.108234E+02
 curvature:   0.00 expect dE= 0.000E+00 dE for cont linesearch  0.000E+00
 trial: gam= 0.00000 g(F)=  0.930E-45 g(S)=  0.150E-01 ort = 0.000E+00 (trialstep = 0.100E+01)
 search vector abs. value=  0.150E-01
 bond charge predicted
       N       E                     dE             d eps       ncg     rms          rms(c)
DAV:   1    -0.108315390572E+02   -0.82204E-02   -0.22740E-01  1088   0.264E+00    0.303E-01
DAV:   2    -0.108276594364E+02    0.38796E-02   -0.31709E-03  1200   0.361E-01    0.173E-01
DAV:   3    -0.108256623553E+02    0.19971E-02   -0.40800E-03  1040   0.322E-01    0.217E-02
DAV:   4    -0.108256520329E+02    0.10322E-04   -0.42897E-05   456   0.579E-02
   2 F= -.10825652E+02 E0= -.10825617E+02  d E =-.224197E-02
 trial-energy change:   -0.002242  1 .order   -0.002562   -0.014964    0.009841
 step:   0.6033(harm=  0.6033)  dis= 0.00000  next Energy=   -10.827924 (dE=-0.451E-02)
 bond charge predicted
       N       E                     dE             d eps       ncg     rms          rms(c)
DAV:   1    -0.108286240658E+02   -0.29617E-02   -0.36623E-02  1056   0.107E+00    0.122E-01
DAV:   2    -0.108280145631E+02    0.60950E-03   -0.50724E-04  1136   0.145E-01    0.700E-02
DAV:   3    -0.108276945711E+02    0.31999E-03   -0.64028E-04   640   0.129E-01
   3 F= -.10827695E+02 E0= -.10827652E+02  d E =-.428451E-02
 curvature:  -0.30 expect dE=-0.359E-05 dE for cont linesearch -0.359E-05
 trial: gam= 0.00000 g(F)=  0.290E-45 g(S)=  0.119E-04 ort =-0.422E-03 (trialstep = 0.921E+00)
 search vector abs. value=  0.119E-04
 reached required accuracy - stopping structural energy minimisation
 writing wavefunctions
