<?xml version="1.0" encoding="ISO-8859-1"?>
<modeling>
 <generator>
  <i name="program" type="string">vasp </i>
  <i name="version" type="string">5.4.4.18Apr17-6-g9f103f2a35  </i>
  <i name="subversion" type="string">(build Dec 09 2018 21:25:21) complex            parallel </i>
  <i name="platform" type="string">IFC18.0.1.163_CrayMPICH7.7.0_MKL18.0.1.163 </i>
  <i name="date" type="string">2019 03 20 </i>
  <i name="time" type="string">09:50:42 </i>
 </generator>
 <incar>
  <i type="string" name="PREC">normal</i>
  <i type="int" name="IBRION">     2</i>
  <i name="EDIFF">      0.00040000</i>
  <i name="EDIFFG">     -0.01000000</i>
  <i type="int" name="NSW">    15</i>
  <i type="int" name="ISIF">     3</i>
  <i name="ENCUT">    250.00000000</i>
  <i type="int" name="NBANDS">     8</i>
  <i type="logical" name="LREAL"> F  </i>
  <i type="int" name="ISMEAR">     0</i>
  <i name="SIGMA">      0.20000000</i>
  <v type="int" name="KPOINT_BSE">    -1     0     0     0</v>
 </incar>
 <structure name="primitive_cell" >
  <crystal>
   <varray name="basis" >
    <v>       0.00000000       2.71500000       2.71500000 </v>
    <v>       2.71500000       0.00000000       2.71500000 </v>
    <v>       2.71500000       2.71500000       0.00000000 </v>
   </varray>
   <i name="volume">     40.02575175 </i>
   <varray name="rec_basis" >
    <v>      -0.18416206       0.18416206       0.18416206 </v>
    <v>       0.18416206      -0.18416206       0.18416206 </v>
    <v>       0.18416206       0.18416206      -0.18416206 </v>
   </varray>
  </crystal>
  <varray name="positions" >
   <v>      -0.50000000      -0.50000000      -0.50000000 </v>
   <v>      -0.25000000      -0.25000000      -0.25000000 </v>
  </varray>
 </structure>
 <varray name="primitive_index" >
  <v type="int" >        1 </v>
  <v type="int" >        2 </v>
 </varray>
 <kpoints>
  <generation param="Monkhorst-Pack">
   <v type="int" name="divisions">      11       11       11 </v>
   <v name="usershift">      0.00000000       0.00000000       0.00000000 </v>
   <v name="genvec1">      0.09090909       0.00000000      -0.00000000 </v>
   <v name="genvec2">      0.00000000       0.09090909       0.00000000 </v>
   <v name="genvec3">     -0.00000000      -0.00000000       0.09090909 </v>
   <v name="shift">      0.00000000       0.00000000       0.00000000 </v>
  </generation>
  <varray name="kpointlist" >
   <v>       0.00000000       0.00000000       0.00000000 </v>
   <v>       0.09090909      -0.00000000       0.00000000 </v>
   <v>       0.18181818      -0.00000000       0.00000000 </v>
   <v>       0.27272727       0.00000000       0.00000000 </v>
   <v>       0.36363636      -0.00000000       0.00000000 </v>
   <v>       0.45454545       0.00000000       0.00000000 </v>
   <v>       0.09090909       0.09090909       0.00000000 </v>
   <v>       0.18181818       0.09090909       0.00000000 </v>
   <v>       0.27272727       0.09090909       0.00000000 </v>
   <v>       0.36363636       0.09090909       0.00000000 </v>
   <v>       0.45454545       0.09090909       0.00000000 </v>
   <v>      -0.45454545       0.09090909      -0.00000000 </v>
   <v>      -0.36363636       0.09090909      -0.00000000 </v>
   <v>      -0.27272727       0.09090909      -0.00000000 </v>
   <v>      -0.18181818       0.09090909      -0.00000000 </v>
   <v>      -0.09090909       0.09090909      -0.00000000 </v>
   <v>       0.18181818       0.18181818       0.00000000 </v>
   <v>       0.27272727       0.18181818       0.00000000 </v>
   <v>       0.36363636       0.18181818       0.00000000 </v>
   <v>       0.45454545       0.18181818       0.00000000 </v>
   <v>      -0.45454545       0.18181818       0.00000000 </v>
   <v>      -0.36363636       0.18181818      -0.00000000 </v>
   <v>      -0.27272727       0.18181818      -0.00000000 </v>
   <v>      -0.18181818       0.18181818      -0.00000000 </v>
   <v>       0.27272727       0.27272727       0.00000000 </v>
   <v>       0.36363636       0.27272727       0.00000000 </v>
   <v>       0.45454545       0.27272727       0.00000000 </v>
   <v>      -0.45454545       0.27272727       0.00000000 </v>
   <v>      -0.36363636       0.27272727       0.00000000 </v>
   <v>      -0.27272727       0.27272727      -0.00000000 </v>
   <v>       0.36363636       0.36363636       0.00000000 </v>
   <v>       0.45454545       0.36363636       0.00000000 </v>
   <v>      -0.45454545       0.36363636      -0.00000000 </v>
   <v>      -0.36363636       0.36363636      -0.00000000 </v>
   <v>       0.45454545       0.45454545       0.00000000 </v>
   <v>      -0.45454545       0.45454545      -0.00000000 </v>
   <v>       0.27272727       0.18181818       0.09090909 </v>
   <v>       0.36363636       0.18181818       0.09090909 </v>
   <v>       0.45454545       0.18181818       0.09090909 </v>
   <v>      -0.45454545       0.18181818       0.09090909 </v>
   <v>       0.36363636       0.27272727       0.09090909 </v>
   <v>       0.45454545       0.27272727       0.09090909 </v>
   <v>      -0.45454545       0.27272727       0.09090909 </v>
   <v>      -0.36363636       0.27272727       0.09090909 </v>
   <v>      -0.27272727       0.27272727       0.09090909 </v>
   <v>      -0.18181818       0.27272727       0.09090909 </v>
   <v>       0.45454545       0.36363636       0.09090909 </v>
   <v>      -0.45454545       0.36363636       0.09090909 </v>
   <v>      -0.36363636       0.36363636       0.09090909 </v>
   <v>      -0.27272727       0.36363636       0.09090909 </v>
   <v>      -0.45454545       0.45454545       0.09090909 </v>
   <v>      -0.36363636       0.45454545       0.09090909 </v>
   <v>      -0.45454545       0.36363636       0.18181818 </v>
   <v>      -0.36363636       0.36363636       0.18181818 </v>
   <v>      -0.36363636       0.45454545       0.18181818 </v>
   <v>      -0.27272727       0.45454545       0.18181818 </v>
  </varray>
  <varray name="weights" >
   <v>       0.00075131 </v>
   <v>       0.00601052 </v>
   <v>       0.00601052 </v>
   <v>       0.00601052 </v>
   <v>       0.00601052 </v>
   <v>       0.00601052 </v>
   <v>       0.00450789 </v>
   <v>       0.01803156 </v>
   <v>       0.01803156 </v>
   <v>       0.01803156 </v>
   <v>       0.01803156 </v>
   <v>       0.01803156 </v>
   <v>       0.01803156 </v>
   <v>       0.01803156 </v>
   <v>       0.01803156 </v>
   <v>       0.00901578 </v>
   <v>       0.00450789 </v>
   <v>       0.01803156 </v>
   <v>       0.01803156 </v>
   <v>       0.01803156 </v>
   <v>       0.01803156 </v>
   <v>       0.01803156 </v>
   <v>       0.01803156 </v>
   <v>       0.00901578 </v>
   <v>       0.00450789 </v>
   <v>       0.01803156 </v>
   <v>       0.01803156 </v>
   <v>       0.01803156 </v>
   <v>       0.01803156 </v>
   <v>       0.00901578 </v>
   <v>       0.00450789 </v>
   <v>       0.01803156 </v>
   <v>       0.01803156 </v>
   <v>       0.00901578 </v>
   <v>       0.00450789 </v>
   <v>       0.00901578 </v>
   <v>       0.01803156 </v>
   <v>       0.03606311 </v>
   <v>       0.03606311 </v>
   <v>       0.03606311 </v>
   <v>       0.01803156 </v>
   <v>       0.03606311 </v>
   <v>       0.03606311 </v>
   <v>       0.03606311 </v>
   <v>       0.03606311 </v>
   <v>       0.01803156 </v>
   <v>       0.01803156 </v>
   <v>       0.03606311 </v>
   <v>       0.03606311 </v>
   <v>       0.01803156 </v>
   <v>       0.01803156 </v>
   <v>       0.01803156 </v>
   <v>       0.01803156 </v>
   <v>       0.03606311 </v>
   <v>       0.01803156 </v>
   <v>       0.01803156 </v>
  </varray>
 </kpoints>
 <parameters>
  <separator name="general" >
   <i type="string" name="SYSTEM">unknown system</i>
   <i type="logical" name="LCOMPAT"> F  </i>
  </separator>
  <separator name="electronic" >
   <i type="string" name="PREC">normal</i>
   <i name="ENMAX">    250.00000000</i>
   <i name="ENAUG">    322.06900000</i>
   <i name="EDIFF">      0.00040000</i>
   <i type="int" name="IALGO">    38</i>
   <i type="int" name="IWAVPR">    11</i>
   <i type="int" name="NBANDS">     8</i>
   <i name="NELECT">      8.00000000</i>
   <i type="int" name="TURBO">     0</i>
   <i type="int" name="IRESTART">     0</i>
   <i type="int" name="NREBOOT">     0</i>
   <i type="int" name="NMIN">     0</i>
   <i name="EREF">      0.00000000</i>
   <separator name="electronic smearing" >
    <i type="int" name="ISMEAR">     0</i>
    <i name="SIGMA">      0.20000000</i>
    <i name="KSPACING">      0.50000000</i>
    <i type="logical" name="KGAMMA"> T  </i>
   </separator>
   <separator name="electronic projectors" >
    <i type="logical" name="LREAL"> F  </i>
    <v name="ROPT">      0.00000000</v>
    <i type="int" name="LMAXPAW">  -100</i>
    <i type="int" name="LMAXMIX">     2</i>
    <i type="logical" name="NLSPLINE"> F  </i>
   </separator>
   <separator name="electronic startup" >
    <i type="int" name="ISTART">     0</i>
    <i type="int" name="ICHARG">     2</i>
    <i type="int" name="INIWAV">     1</i>
   </separator>
   <separator name="electronic spin" >
    <i type="int" name="ISPIN">     1</i>
    <i type="logical" name="LNONCOLLINEAR"> F  </i>
    <v name="MAGMOM">      1.00000000      1.00000000</v>
    <i name="NUPDOWN">     -1.00000000</i>
    <i type="logical" name="LSORBIT"> F  </i>
    <v name="SAXIS">      0.00000000      0.00000000      1.00000000</v>
    <i type="logical" name="LSPIRAL"> F  </i>
    <v name="QSPIRAL">      0.00000000      0.00000000      0.00000000</v>
    <i type="logical" name="LZEROZ"> F  </i>
   </separator>
   <separator name="electronic exchange-correlation" >
    <i type="logical" name="LASPH"> F  </i>
    <i type="logical" name="LMETAGGA"> F  </i>
   </separator>
   <separator name="electronic convergence" >
    <i type="int" name="NELM">    60</i>
    <i type="int" name="NELMDL">    -5</i>
    <i type="int" name="NELMIN">     2</i>
    <i name="ENINI">    250.00000000</i>
    <separator name="electronic convergence detail" >
     <i type="logical" name="LDIAG"> T  </i>
     <i type="logical" name="LSUBROT"> F  </i>
     <i name="WEIMIN">      0.00100000</i>
     <i name="EBREAK">      0.00001250</i>
     <i name="DEPER">      0.30000000</i>
     <i type="int" name="NRMM">     4</i>
     <i name="TIME">      0.40000000</i>
    </separator>
   </separator>
   <separator name="electronic mixer" >
    <i name="AMIX">      0.40000000</i>
    <i name="BMIX">      1.00000000</i>
    <i name="AMIN">      0.10000000</i>
    <i name="AMIX_MAG">      1.60000000</i>
    <i name="BMIX_MAG">      1.00000000</i>
    <separator name="electronic mixer details" >
     <i type="int" name="IMIX">     4</i>
     <i type="logical" name="MIXFIRST"> F  </i>
     <i type="int" name="MAXMIX">   -45</i>
     <i name="WC">    100.00000000</i>
     <i type="int" name="INIMIX">     1</i>
     <i type="int" name="MIXPRE">     1</i>
     <i type="int" name="MREMOVE">     5</i>
    </separator>
   </separator>
   <separator name="electronic dipolcorrection" >
    <i type="logical" name="LDIPOL"> F  </i>
    <i type="logical" name="LMONO"> F  </i>
    <i type="int" name="IDIPOL">     0</i>
    <i name="EPSILON">      1.00000000</i>
    <v name="DIPOL">   -100.00000000   -100.00000000   -100.00000000</v>
    <i name="EFIELD">      0.00000000</i>
   </separator>
  </separator>
  <separator name="grids" >
   <i type="int" name="NGX">    16</i>
   <i type="int" name="NGY">    16</i>
   <i type="int" name="NGZ">    16</i>
   <i type="int" name="NGXF">    32</i>
   <i type="int" name="NGYF">    32</i>
   <i type="int" name="NGZF">    32</i>
   <i type="logical" name="ADDGRID"> F  </i>
  </separator>
  <separator name="ionic" >
   <i type="int" name="NSW">    15</i>
   <i type="int" name="IBRION">     2</i>
   <i type="int" name="MDALGO">     0</i>
   <i type="int" name="ISIF">     3</i>
   <i name="PSTRESS">      0.00000000</i>
   <i name="EDIFFG">     -0.01000000</i>
   <i type="int" name="NFREE">     1</i>
   <i name="POTIM">      0.50000000</i>
   <i name="SMASS">     -3.00000000</i>
   <i name="SCALEE">      1.00000000</i>
  </separator>
  <separator name="ionic md" >
   <i name="TEBEG">      0.00010000</i>
   <i name="TEEND">      0.00010000</i>
   <i type="int" name="NBLOCK">     1</i>
   <i type="int" name="KBLOCK">    15</i>
   <i type="int" name="NPACO">   256</i>
   <i name="APACO">     16.00000000</i>
  </separator>
  <separator name="symmetry" >
   <i type="int" name="ISYM">     2</i>
   <i name="SYMPREC">      0.00001000</i>
  </separator>
  <separator name="dos" >
   <i type="int" name="LORBIT">     0</i>
   <v name="RWIGS">     -1.00000000</v>
   <i type="int" name="NEDOS">   301</i>
   <i name="EMIN">     10.00000000</i>
   <i name="EMAX">    -10.00000000</i>
   <i name="EFERMI">      0.00000000</i>
  </separator>
  <separator name="writing" >
   <i type="int" name="NWRITE">     2</i>
   <i type="logical" name="LWAVE"> T  </i>
   <i type="logical" name="LDOWNSAMPLE"> F  </i>
   <i type="logical" name="LCHARG"> T  </i>
   <i type="logical" name="LPARD"> F  </i>
   <i type="logical" name="LVTOT"> F  </i>
   <i type="logical" name="LVHAR"> F  </i>
   <i type="logical" name="LELF"> F  </i>
   <i type="logical" name="LOPTICS"> F  </i>
   <v name="STM">      0.00000000      0.00000000      0.00000000      0.00000000      0.00000000      0.00000000      0.00000000</v>
  </separator>
  <separator name="performance" >
   <i type="int" name="NPAR">     8</i>
   <i type="int" name="NSIM">     4</i>
   <i type="int" name="NBLK">    -1</i>
   <i type="logical" name="LPLANE"> T  </i>
   <i type="logical" name="LSCALAPACK"> T  </i>
   <i type="logical" name="LSCAAWARE"> F  </i>
   <i type="logical" name="LSCALU"> F  </i>
   <i type="logical" name="LASYNC"> F  </i>
   <i type="logical" name="LORBITALREAL"> F  </i>
  </separator>
  <separator name="miscellaneous" >
   <i type="int" name="IDIOT">     3</i>
   <i type="int" name="ISPECIAL">     0</i>
   <i type="logical" name="LMUSIC"> F  </i>
   <v name="POMASS">     28.08500000</v>
   <v name="DARWINR">      0.00000000</v>
   <v name="DARWINV">      1.00000000</v>
   <i type="logical" name="LCORR"> T  </i>
  </separator>
  <i type="logical" name="GGA_COMPAT"> T  </i>
  <i type="logical" name="LBERRY"> F  </i>
  <i type="int" name="ICORELEVEL">     0</i>
  <i type="logical" name="LDAU"> F  </i>
  <i type="int" name="I_CONSTRAINED_M">     0</i>
  <separator name="electronic exchange-correlation" >
   <i type="string" name="GGA">--</i>
   <i type="int" name="VOSKOWN">     0</i>
   <i type="logical" name="LHFCALC"> F  </i>
   <i type="string" name="PRECFOCK"></i>
   <i type="logical" name="LSYMGRAD"> F  </i>
   <i type="logical" name="LHFONE"> F  </i>
   <i type="logical" name="LRHFCALC"> F  </i>
   <i type="logical" name="LTHOMAS"> F  </i>
   <i type="logical" name="LMODELHF"> F  </i>
   <i name="ENCUT4O">     -1.00000000</i>
   <i type="int" name="EXXOEP">     0</i>
   <i type="int" name="FOURORBIT">     0</i>
   <i name="AEXX">      0.00000000</i>
   <i name="HFALPHA">      0.00000000</i>
   <i name="MCALPHA">      0.00000000</i>
   <i name="ALDAX">      1.00000000</i>
   <i name="AGGAX">      1.00000000</i>
   <i name="ALDAC">      1.00000000</i>
   <i name="AGGAC">      1.00000000</i>
   <i type="int" name="NKREDX">     1</i>
   <i type="int" name="NKREDY">     1</i>
   <i type="int" name="NKREDZ">     1</i>
   <i type="logical" name="SHIFTRED"> F  </i>
   <i type="logical" name="ODDONLY"> F  </i>
   <i type="logical" name="EVENONLY"> F  </i>
   <i type="int" name="LMAXFOCK">     0</i>
   <i type="int" name="NMAXFOCKAE">     0</i>
   <i type="logical" name="LFOCKAEDFT"> F  </i>
   <i name="HFSCREEN">      0.00000000</i>
   <i name="HFSCREENC">      0.00000000</i>
   <i type="int" name="NBANDSGWLOW">     0</i>
  </separator>
  <separator name="vdW DFT" >
   <i type="logical" name="LUSE_VDW"> F  </i>
   <i name="Zab_VDW">     -0.84910000</i>
   <i name="PARAM1">      0.12340000</i>
   <i name="PARAM2">      1.00000000</i>
   <i name="PARAM3">      0.00000000</i>
  </separator>
  <separator name="model GW" >
   <i type="int" name="MODEL_GW">     0</i>
   <i name="MODEL_EPS0">     12.00772552</i>
   <i name="MODEL_ALPHA">      1.00000000</i>
  </separator>
  <separator name="linear response parameters" >
   <i type="logical" name="LEPSILON"> F  </i>
   <i type="logical" name="LRPA"> F  </i>
   <i type="logical" name="LNABLA"> F  </i>
   <i type="logical" name="LVEL"> F  </i>
   <i type="int" name="KINTER">     0</i>
   <i name="CSHIFT">      0.10000000</i>
   <i name="OMEGAMAX">     -1.00000000</i>
   <i name="DEG_THRESHOLD">      0.00200000</i>
   <i name="RTIME">     -0.10000000</i>
   <i name="WPLASMAI">      0.00000000</i>
   <v name="DFIELD">      0.00000000      0.00000000      0.00000000</v>
   <v name="WPLASMA">      0.00000000      0.00000000      0.00000000      0.00000000      0.00000000      0.00000000      0.00000000      0.00000000      0.00000000</v>
  </separator>
  <separator name="orbital magnetization" >
   <i type="logical" name="NUCIND"> F  </i>
   <v name="MAGPOS">      0.00000000      0.00000000      0.00000000</v>
   <i type="logical" name="LNICSALL"> T  </i>
   <i type="logical" name="ORBITALMAG"> F  </i>
   <i type="logical" name="LMAGBLOCH"> F  </i>
   <i type="logical" name="LCHIMAG"> F  </i>
   <i type="logical" name="LGAUGE"> T  </i>
   <i type="int" name="MAGATOM">     0</i>
   <v name="MAGDIPOL">      0.00000000      0.00000000      0.00000000</v>
   <v name="AVECCONST">      0.00000000      0.00000000      0.00000000</v>
  </separator>
  <separator name="response functions" >
   <i type="logical" name="LADDER"> F  </i>
   <i type="logical" name="LRPAFORCE"> F  </i>
   <i type="logical" name="LFXC"> F  </i>
   <i type="logical" name="LHARTREE"> T  </i>
   <i type="int" name="IBSE">     0</i>
   <v type="int" name="KPOINT">    -1     0     0     0</v>
   <i type="logical" name="LTCTE"> F  </i>
   <i type="logical" name="LTETE"> F  </i>
   <i type="logical" name="LTRIPLET"> F  </i>
   <i type="logical" name="LFXCEPS"> F  </i>
   <i type="logical" name="LFXHEG"> F  </i>
   <i type="int" name="NATURALO">     2</i>
   <i type="logical" name="L2ORDER"> F  </i>
   <i type="logical" name="LMP2LT"> F  </i>
   <i type="logical" name="LUSEW"> F  </i>
   <i name="ENCUTGW">     -2.00000000</i>
   <i name="ENCUTGWSOFT">     -2.00000000</i>
   <i name="ENCUTLF">     -1.00000000</i>
   <i type="int" name="LMAXMP2">    -1</i>
   <i name="SCISSOR">      0.00000000</i>
   <i type="int" name="NOMEGA">     0</i>
   <i type="int" name="NOMEGAR">     0</i>
   <i type="int" name="NBANDSGW">    -1</i>
   <i type="int" name="NBANDSO">    -1</i>
   <i type="int" name="NBANDSV">    -1</i>
   <i type="int" name="NELM">     1</i>
   <i type="int" name="NELMHF">     1</i>
   <i type="int" name="DIM">     3</i>
   <i type="int" name="ANTIRES">     0</i>
   <i name="OMEGAMAX">    -30.00000000</i>
   <i name="OMEGAMIN">    -30.00000000</i>
   <i name="OMEGATL">   -200.00000000</i>
   <i type="int" name="OMEGAGRID">   140</i>
   <i name="CSHIFT">     -0.10000000</i>
   <i type="logical" name="SELFENERGY"> F  </i>
   <i type="logical" name="LSPECTRAL"> F  </i>
   <i type="logical" name="LSPECTRALGW"> F  </i>
   <i type="logical" name="LSINGLES"> F  </i>
   <i type="logical" name="LFERMIGW"> F  </i>
   <i type="logical" name="ODDONLYGW"> F  </i>
   <i type="logical" name="EVENONLYGW"> F  </i>
   <i type="int" name="NKREDLFX">     1</i>
   <i type="int" name="NKREDLFY">     1</i>
   <i type="int" name="NKREDLFZ">     1</i>
   <i type="int" name="MAXMEM">  2800</i>
   <i type="int" name="TELESCOPE">     0</i>
   <i type="int" name="TAUPAR">     1</i>
   <i type="int" name="OMEGAPAR">    -1</i>
   <i name="LAMBDA">      1.00000000</i>
  </separator>
  <separator name="External order field" >
   <i name="OFIELD_KAPPA">      0.00000000</i>
   <v name="OFIELD_K">      0.00000000      0.00000000      0.00000000</v>
   <i name="OFIELD_Q6_NEAR">      0.00000000</i>
   <i name="OFIELD_Q6_FAR">      0.00000000</i>
   <i name="OFIELD_A">      0.00000000</i>
  </separator>
 </parameters>
 <atominfo>
  <atoms>       2 </atoms>
  <types>       1 </types>
  <array name="atoms" >
   <dimension dim="1">ion</dimension>
   <field type="string">element</field>
   <field type="int">atomtype</field>
   <set>
    <rc><c>Si</c><c>   1</c></rc>
    <rc><c>Si</c><c>   1</c></rc>
   </set>
  </array>
  <array name="atomtypes" >
   <dimension dim="1">type</dimension>
   <field type="int">atomspertype</field>
   <field type="string">element</field>
   <field>mass</field>
   <field>valence</field>
   <field type="string">pseudopotential</field>
   <set>
    <rc><c>   2</c><c>Si</c><c>     28.08500000</c><c>      4.00000000</c><c> PAW_PBE Si 05Jan2001                   </c></rc>
   </set>
  </array>
 </atominfo>
 <structure name="initialpos" >
  <crystal>
   <varray name="basis" >
    <v>       0.00000000       2.71500000       2.71500000 </v>
    <v>       2.71500000       0.00000000       2.71500000 </v>
    <v>       2.71500000       2.71500000       0.00000000 </v>
   </varray>
   <i name="volume">     40.02575175 </i>
   <varray name="rec_basis" >
    <v>      -0.18416206       0.18416206       0.18416206 </v>
    <v>       0.18416206      -0.18416206       0.18416206 </v>
    <v>       0.18416206       0.18416206      -0.18416206 </v>
   </varray>
  </crystal>
  <varray name="positions" >
   <v>       0.50000000       0.50000000       0.50000000 </v>
   <v>       0.75000000       0.75000000       0.75000000 </v>
  </varray>
 </structure>
 <calculation>
  <scstep>
   <time name="dav">    0.48    0.48</time>
   <time name="total">    0.52    0.54</time>
   <energy>
    <i name="alphaZ">      3.36414203 </i>
    <i name="ewald">   -228.56352493 </i>
    <i name="hartreedc">    -11.00108243 </i>
    <i name="XCdc">    -18.60181216 </i>
    <i name="pawpsdc">     65.95520812 </i>
    <i name="pawaedc">    -30.76852678 </i>
    <i name="eentropy">     -0.00628951 </i>
    <i name="bandstr">     14.56632722 </i>
    <i name="atom">    206.12349923 </i>
    <i name="e_fr_energy">      1.06794077 </i>
    <i name="e_wo_entrp">      1.07423029 </i>
    <i name="e_0_energy">      1.07108553 </i>
   </energy>
  </scstep>
  <scstep>
   <time name="dav">    0.77    0.78</time>
   <time name="total">    0.77    0.79</time>
   <energy>
    <i name="e_fr_energy">    -10.88338493 </i>
    <i name="e_wo_entrp">    -10.88337889 </i>
    <i name="e_0_energy">    -10.88338191 </i>
   </energy>
  </scstep>
  <scstep>
   <time name="dav">    0.56    0.57</time>
   <time name="total">    0.57    0.58</time>
   <energy>
    <i name="e_fr_energy">    -11.00220968 </i>
    <i name="e_wo_entrp">    -11.00220454 </i>
    <i name="e_0_energy">    -11.00220711 </i>
   </energy>
  </scstep>
  <scstep>
   <time name="dav">    0.83    0.84</time>
   <time name="total">    0.84    0.85</time>
   <energy>
    <i name="e_fr_energy">    -11.00264538 </i>
    <i name="e_wo_entrp">    -11.00264025 </i>
    <i name="e_0_energy">    -11.00264282 </i>
   </energy>
  </scstep>
  <scstep>
   <time name="dav">    0.57    0.57</time>
   <time name="total">    0.59    0.60</time>
   <energy>
    <i name="e_fr_energy">    -11.00264546 </i>
    <i name="e_wo_entrp">    -11.00264033 </i>
    <i name="e_0_energy">    -11.00264289 </i>
   </energy>
  </scstep>
  <scstep>
   <time name="dav">    0.54    0.55</time>
   <time name="total">    0.60    0.61</time>
   <energy>
    <i name="e_fr_energy">    -10.87844670 </i>
    <i name="e_wo_entrp">    -10.87842111 </i>
    <i name="e_0_energy">    -10.87843391 </i>
   </energy>
  </scstep>
  <scstep>
   <time name="dav">    0.58    0.57</time>
   <time name="total">    0.62    0.64</time>
   <energy>
    <i name="e_fr_energy">    -10.82202478 </i>
    <i name="e_wo_entrp">    -10.82188293 </i>
    <i name="e_0_energy">    -10.82195386 </i>
   </energy>
  </scstep>
  <scstep>
   <time name="dav">    0.51    0.51</time>
   <time name="total">    0.56    0.58</time>
   <energy>
    <i name="e_fr_energy">    -10.82331868 </i>
    <i name="e_wo_entrp">    -10.82320240 </i>
    <i name="e_0_energy">    -10.82326054 </i>
   </energy>
  </scstep>
  <scstep>
   <time name="dav">    0.38    0.38</time>
   <time name="total">    0.41    0.42</time>
   <energy>
    <i name="alphaZ">      3.36414203 </i>
    <i name="ewald">   -228.56352493 </i>
    <i name="hartreedc">    -14.89924678 </i>
    <i name="XCdc">    -17.95424099 </i>
    <i name="pawpsdc">     74.98725269 </i>
    <i name="pawaedc">    -40.03081931 </i>
    <i name="eentropy">     -0.00011555 </i>
    <i name="bandstr">      6.14964356 </i>
    <i name="atom">    206.12349923 </i>
    <i name="e_fr_energy">    -10.82341006 </i>
    <i name="e_wo_entrp">    -10.82329451 </i>
    <i name="e_0_energy">    -10.82335229 </i>
   </energy>
  </scstep>
  <structure>
   <crystal>
    <varray name="basis" >
     <v>       0.00000000       2.71500000       2.71500000 </v>
     <v>       2.71500000       0.00000000       2.71500000 </v>
     <v>       2.71500000       2.71500000       0.00000000 </v>
    </varray>
    <i name="volume">     40.02575175 </i>
    <varray name="rec_basis" >
     <v>      -0.18416206       0.18416206       0.18416206 </v>
     <v>       0.18416206      -0.18416206       0.18416206 </v>
     <v>       0.18416206       0.18416206      -0.18416206 </v>
    </varray>
   </crystal>
   <varray name="positions" >
    <v>       0.50000000       0.50000000       0.50000000 </v>
    <v>       0.75000000       0.75000000       0.75000000 </v>
   </varray>
  </structure>
  <varray name="forces" >
   <v>       0.00000000       0.00000000       0.00000000 </v>
   <v>      -0.00000000      -0.00000000      -0.00000000 </v>
  </varray>
  <varray name="stress" >
   <v>      18.20289556      -0.00000000       0.00000000 </v>
   <v>      -0.00000000      18.20289556       0.00000000 </v>
   <v>       0.00000000      -0.00000000      18.20289556 </v>
  </varray>
  <energy>
   <i name="e_fr_energy">    -10.82341006 </i>
   <i name="e_wo_entrp">    -10.82335229 </i>
   <i name="e_0_energy">     -0.00011555 </i>
  </energy>
  <time name="totalsc">    6.56    7.29</time>
 </calculation>
 <calculation>
  <scstep>
   <time name="dav">    0.56    0.55</time>
   <time name="total">    0.60    0.61</time>
   <energy>
    <i name="alphaZ">      3.25582228 </i>
    <i name="ewald">   -226.08359370 </i>
    <i name="hartreedc">    -14.74956374 </i>
    <i name="XCdc">    -18.11405720 </i>
    <i name="pawpsdc">     74.98378772 </i>
    <i name="pawaedc">    -40.02832741 </i>
    <i name="eentropy">     -0.00004345 </i>
    <i name="bandstr">      3.78093721 </i>
    <i name="atom">    206.12349923 </i>
    <i name="e_fr_energy">    -10.83153906 </i>
    <i name="e_wo_entrp">    -10.83149561 </i>
    <i name="e_0_energy">    -10.83151733 </i>
   </energy>
  </scstep>
  <scstep>
   <time name="dav">    0.62    0.61</time>
   <time name="total">    0.66    0.68</time>
   <energy>
    <i name="e_fr_energy">    -10.82765944 </i>
    <i name="e_wo_entrp">    -10.82760522 </i>
    <i name="e_0_energy">    -10.82763233 </i>
   </energy>
  </scstep>
  <scstep>
   <time name="dav">    0.53    0.53</time>
   <time name="total">    0.58    0.60</time>
   <energy>
    <i name="e_fr_energy">    -10.82566236 </i>
    <i name="e_wo_entrp">    -10.82559136 </i>
    <i name="e_0_energy">    -10.82562686 </i>
   </energy>
  </scstep>
  <scstep>
   <time name="dav">    0.27    0.27</time>
   <time name="total">    0.30    0.31</time>
   <energy>
    <i name="alphaZ">      3.25582228 </i>
    <i name="ewald">   -226.08359370 </i>
    <i name="hartreedc">    -15.29676510 </i>
    <i name="XCdc">    -18.10286565 </i>
    <i name="pawpsdc">     74.00142616 </i>
    <i name="pawaedc">    -39.01854728 </i>
    <i name="eentropy">     -0.00006995 </i>
    <i name="bandstr">      4.29544199 </i>
    <i name="atom">    206.12349923 </i>
    <i name="e_fr_energy">    -10.82565203 </i>
    <i name="e_wo_entrp">    -10.82558208 </i>
    <i name="e_0_energy">    -10.82561706 </i>
   </energy>
  </scstep>
  <structure>
   <crystal>
    <varray name="basis" >
     <v>      -0.00000000       2.74478108       2.74478108 </v>
     <v>       2.74478108      -0.00000000       2.74478108 </v>
     <v>       2.74478108       2.74478108       0.00000000 </v>
    </varray>
    <i name="volume">     41.35739057 </i>
    <varray name="rec_basis" >
     <v>      -0.18216389       0.18216389       0.18216389 </v>
     <v>       0.18216389      -0.18216389       0.18216389 </v>
     <v>       0.18216389       0.18216389      -0.18216389 </v>
    </varray>
   </crystal>
   <varray name="positions" >
    <v>       0.50000000       0.50000000       0.50000000 </v>
    <v>       0.75000000       0.75000000       0.75000000 </v>
   </varray>
  </structure>
  <varray name="forces" >
   <v>      -0.00000000      -0.00000000       0.00000000 </v>
   <v>       0.00000000       0.00000000      -0.00000000 </v>
  </varray>
  <varray name="stress" >
   <v>     -11.58518660      -0.00000000      -0.00000000 </v>
   <v>       0.00000000     -11.58518660       0.00000000 </v>
   <v>      -0.00000000       0.00000000     -11.58518660 </v>
  </varray>
  <energy>
   <i name="e_fr_energy">    -10.82565203 </i>
   <i name="e_wo_entrp">    -10.82561706 </i>
   <i name="e_0_energy">     -0.00006995 </i>
  </energy>
  <time name="totalsc">    2.56    2.83</time>
 </calculation>
 <calculation>
  <scstep>
   <time name="dav">    0.54    0.54</time>
   <time name="total">    0.59    0.60</time>
   <energy>
    <i name="alphaZ">      3.29823098 </i>
    <i name="ewald">   -227.06097936 </i>
    <i name="hartreedc">    -15.36520174 </i>
    <i name="XCdc">    -18.04078819 </i>
    <i name="pawpsdc">     73.96589556 </i>
    <i name="pawaedc">    -38.98149139 </i>
    <i name="eentropy">     -0.00010127 </i>
    <i name="bandstr">      5.23231211 </i>
    <i name="atom">    206.12349923 </i>
    <i name="e_fr_energy">    -10.82862407 </i>
    <i name="e_wo_entrp">    -10.82852280 </i>
    <i name="e_0_energy">    -10.82857343 </i>
   </energy>
  </scstep>
  <scstep>
   <time name="dav">    0.60    0.60</time>
   <time name="total">    0.64    0.66</time>
   <energy>
    <i name="e_fr_energy">    -10.82801456 </i>
    <i name="e_wo_entrp">    -10.82792119 </i>
    <i name="e_0_energy">    -10.82796788 </i>
   </energy>
  </scstep>
  <scstep>
   <time name="dav">    0.36    0.36</time>
   <time name="total">    0.39    0.40</time>
   <energy>
    <i name="alphaZ">      3.29823098 </i>
    <i name="ewald">   -227.06097936 </i>
    <i name="hartreedc">    -15.14312609 </i>
    <i name="XCdc">    -18.04610978 </i>
    <i name="pawpsdc">     74.29565115 </i>
    <i name="pawaedc">    -39.31965561 </i>
    <i name="eentropy">     -0.00008419 </i>
    <i name="bandstr">      5.02487910 </i>
    <i name="atom">    206.12349923 </i>
    <i name="e_fr_energy">    -10.82769457 </i>
    <i name="e_wo_entrp">    -10.82761038 </i>
    <i name="e_0_energy">    -10.82765248 </i>
   </energy>
  </scstep>
  <structure>
   <crystal>
    <varray name="basis" >
     <v>      -0.00000000       2.73296615       2.73296615 </v>
     <v>       2.73296615      -0.00000000       2.73296615 </v>
     <v>       2.73296615       2.73296615       0.00000000 </v>
    </varray>
    <i name="volume">     40.82561660 </i>
    <varray name="rec_basis" >
     <v>      -0.18295141       0.18295141       0.18295141 </v>
     <v>       0.18295141      -0.18295141       0.18295141 </v>
     <v>       0.18295141       0.18295141      -0.18295141 </v>
    </varray>
   </crystal>
   <varray name="positions" >
    <v>       0.50000000       0.50000000       0.50000000 </v>
    <v>       0.75000000       0.75000000       0.75000000 </v>
   </varray>
  </structure>
  <varray name="forces" >
   <v>      -0.00000000       0.00000000       0.00000000 </v>
   <v>       0.00000000      -0.00000000      -0.00000000 </v>
  </varray>
  <varray name="stress" >
   <v>      -0.50331857      -0.00000000       0.00000000 </v>
   <v>      -0.00000000      -0.50331857      -0.00000000 </v>
   <v>       0.00000000       0.00000000      -0.50331857 </v>
  </varray>
  <energy>
   <i name="e_fr_energy">    -10.82769457 </i>
   <i name="e_wo_entrp">    -10.82765248 </i>
   <i name="e_0_energy">     -0.00008419 </i>
  </energy>
  <time name="totalsc">    2.12    2.54</time>
  <eigenvalues>
   <array>
    <dimension dim="1">band</dimension>
    <dimension dim="2">kpoint</dimension>
    <dimension dim="3">spin</dimension>
    <field>eigene</field>
    <field>occ</field>
    <set>
     <set comment="spin 1">
      <set comment="kpoint 1">
       <r>   -6.1941    1.0000 </r>
       <r>    5.6426    0.9827 </r>
       <r>    5.6427    0.9827 </r>
       <r>    5.6427    0.9827 </r>
       <r>    8.2024    0.0000 </r>
       <r>    8.2024    0.0000 </r>
       <r>    8.2024    0.0000 </r>
       <r>    8.7826    0.0000 </r>
      </set>
      <set comment="kpoint 2">
       <r>   -6.0876    1.0000 </r>
       <r>    4.6554    1.0000 </r>
       <r>    5.4777    0.9995 </r>
       <r>    5.4777    0.9995 </r>
       <r>    8.1941    0.0000 </r>
       <r>    8.4453    0.0000 </r>
       <r>    8.4454    0.0000 </r>
       <r>    9.6055    0.0000 </r>
      </set>
      <set comment="kpoint 3">
       <r>   -5.7725    1.0000 </r>
       <r>    2.9892    1.0000 </r>
       <r>    5.1398    1.0000 </r>
       <r>    5.1398    1.0000 </r>
       <r>    7.8725    0.0000 </r>
       <r>    8.9144    0.0000 </r>
       <r>    8.9144    0.0000 </r>
       <r>   11.2032    0.0000 </r>
      </set>
      <set comment="kpoint 4">
       <r>   -5.2651    1.0000 </r>
       <r>    1.3493    1.0000 </r>
       <r>    4.8189    1.0000 </r>
       <r>    4.8189    1.0000 </r>
       <r>    7.5285    0.0000 </r>
       <r>    9.1695    0.0000 </r>
       <r>    9.1696    0.0000 </r>
       <r>   12.7729    0.0000 </r>
      </set>
      <set comment="kpoint 5">
       <r>   -4.6170    1.0000 </r>
       <r>   -0.0873    1.0000 </r>
       <r>    4.5886    1.0000 </r>
       <r>    4.5886    1.0000 </r>
       <r>    7.2693    0.0000 </r>
       <r>    9.1210    0.0000 </r>
       <r>    9.1210    0.0000 </r>
       <r>   13.4880    0.0000 </r>
      </set>
      <set comment="kpoint 6">
       <r>   -4.0204    1.0000 </r>
       <r>   -1.0848    1.0000 </r>
       <r>    4.4711    1.0000 </r>
       <r>    4.4711    1.0000 </r>
       <r>    7.1331    0.0000 </r>
       <r>    9.0207    0.0000 </r>
       <r>    9.0207    0.0000 </r>
       <r>   13.3705    0.0000 </r>
      </set>
      <set comment="kpoint 7">
       <r>   -6.0519    1.0000 </r>
       <r>    4.8229    1.0000 </r>
       <r>    5.1581    1.0000 </r>
       <r>    5.1581    1.0000 </r>
       <r>    7.8875    0.0000 </r>
       <r>    8.8635    0.0000 </r>
       <r>    8.8635    0.0000 </r>
       <r>    9.5328    0.0000 </r>
      </set>
      <set comment="kpoint 8">
       <r>   -5.8056    1.0000 </r>
       <r>    3.4774    1.0000 </r>
       <r>    4.7651    1.0000 </r>
       <r>    4.9397    1.0000 </r>
       <r>    7.9211    0.0000 </r>
       <r>    8.8879    0.0000 </r>
       <r>    9.4496    0.0000 </r>
       <r>   10.5210    0.0000 </r>
      </set>
      <set comment="kpoint 9">
       <r>   -5.3597    1.0000 </r>
       <r>    1.8756    1.0000 </r>
       <r>    4.4488    1.0000 </r>
       <r>    4.5691    1.0000 </r>
       <r>    8.0293    0.0000 </r>
       <r>    8.8950    0.0000 </r>
       <r>    9.8049    0.0000 </r>
       <r>   10.9894    0.0000 </r>
      </set>
      <set comment="kpoint 10">
       <r>   -4.7487    1.0000 </r>
       <r>    0.3871    1.0000 </r>
       <r>    4.1910    1.0000 </r>
       <r>    4.2620    1.0000 </r>
       <r>    7.8663    0.0000 </r>
       <r>    8.9534    0.0000 </r>
       <r>    9.7454    0.0000 </r>
       <r>   11.7590    0.0000 </r>
      </set>
      <set comment="kpoint 11">
       <r>   -4.0928    1.0000 </r>
       <r>   -0.7867    1.0000 </r>
       <r>    3.8959    1.0000 </r>
       <r>    4.2211    1.0000 </r>
       <r>    7.7222    0.0000 </r>
       <r>    8.9228    0.0000 </r>
       <r>    9.5174    0.0000 </r>
       <r>   12.9836    0.0000 </r>
      </set>
      <set comment="kpoint 12">
       <r>   -3.8299    1.0000 </r>
       <r>   -1.1799    1.0000 </r>
       <r>    3.7209    1.0000 </r>
       <r>    4.3203    1.0000 </r>
       <r>    7.6930    0.0000 </r>
       <r>    8.9817    0.0000 </r>
       <r>    9.3358    0.0000 </r>
       <r>   13.6768    0.0000 </r>
      </set>
      <set comment="kpoint 13">
       <r>   -4.3016    1.0000 </r>
       <r>   -0.4454    1.0000 </r>
       <r>    3.6867    1.0000 </r>
       <r>    4.5444    1.0000 </r>
       <r>    7.7924    0.0000 </r>
       <r>    9.1717    0.0000 </r>
       <r>    9.2549    0.0000 </r>
       <r>   13.3597    0.0000 </r>
      </set>
      <set comment="kpoint 14">
       <r>   -4.9681    1.0000 </r>
       <r>    0.8633    1.0000 </r>
       <r>    3.8091    1.0000 </r>
       <r>    4.8648    1.0000 </r>
       <r>    8.0076    0.0000 </r>
       <r>    9.1804    0.0000 </r>
       <r>    9.3762    0.0000 </r>
       <r>   12.3018    0.0000 </r>
      </set>
      <set comment="kpoint 15">
       <r>   -5.5303    1.0000 </r>
       <r>    2.3936    1.0000 </r>
       <r>    4.1053    1.0000 </r>
       <r>    5.2250    1.0000 </r>
       <r>    8.3013    0.0000 </r>
       <r>    8.8930    0.0000 </r>
       <r>    9.2432    0.0000 </r>
       <r>   11.4031    0.0000 </r>
      </set>
      <set comment="kpoint 16">
       <r>   -5.9114    1.0000 </r>
       <r>    3.8488    1.0000 </r>
       <r>    4.6661    1.0000 </r>
       <r>    5.4988    0.9991 </r>
       <r>    8.4955    0.0000 </r>
       <r>    8.5334    0.0000 </r>
       <r>    8.6595    0.0000 </r>
       <r>   10.4982    0.0000 </r>
      </set>
      <set comment="kpoint 17">
       <r>   -5.6281    1.0000 </r>
       <r>    3.3213    1.0000 </r>
       <r>    4.3365    1.0000 </r>
       <r>    4.3365    1.0000 </r>
       <r>    7.2486    0.0000 </r>
       <r>    9.7267    0.0000 </r>
       <r>   10.1971    0.0000 </r>
       <r>   10.1972    0.0000 </r>
      </set>
      <set comment="kpoint 18">
       <r>   -5.2473    1.0000 </r>
       <r>    2.1771    1.0000 </r>
       <r>    3.9204    1.0000 </r>
       <r>    3.9970    1.0000 </r>
       <r>    7.3007    0.0000 </r>
       <r>    9.3334    0.0000 </r>
       <r>   10.4831    0.0000 </r>
       <r>   10.7802    0.0000 </r>
      </set>
      <set comment="kpoint 19">
       <r>   -4.6857    1.0000 </r>
       <r>    0.8248    1.0000 </r>
       <r>    3.3926    1.0000 </r>
       <r>    3.8019    1.0000 </r>
       <r>    7.5372    0.0000 </r>
       <r>    9.6900    0.0000 </r>
       <r>   10.2861    0.0000 </r>
       <r>   10.8674    0.0000 </r>
      </set>
      <set comment="kpoint 20">
       <r>   -4.0182    1.0000 </r>
       <r>   -0.3940    1.0000 </r>
       <r>    2.9212    1.0000 </r>
       <r>    3.7687    1.0000 </r>
       <r>    7.5775    0.0000 </r>
       <r>   10.0509    0.0000 </r>
       <r>   10.6217    0.0000 </r>
       <r>   10.8999    0.0000 </r>
      </set>
      <set comment="kpoint 21">
       <r>   -3.5469    1.0000 </r>
       <r>   -1.0895    1.0000 </r>
       <r>    2.5901    1.0000 </r>
       <r>    3.8970    1.0000 </r>
       <r>    7.6724    0.0000 </r>
       <r>    9.9253    0.0000 </r>
       <r>   10.3328    0.0000 </r>
       <r>   12.5113    0.0000 </r>
      </set>
      <set comment="kpoint 22">
       <r>   -3.8254    1.0000 </r>
       <r>   -0.6863    1.0000 </r>
       <r>    2.4411    1.0000 </r>
       <r>    4.1711    1.0000 </r>
       <r>    7.9176    0.0000 </r>
       <r>    9.9215    0.0000 </r>
       <r>   10.1087    0.0000 </r>
       <r>   13.3196    0.0000 </r>
      </set>
      <set comment="kpoint 23">
       <r>   -4.4840    1.0000 </r>
       <r>    0.4116    1.0000 </r>
       <r>    2.5252    1.0000 </r>
       <r>    4.5525    1.0000 </r>
       <r>    8.2734    0.0000 </r>
       <r>    9.8584    0.0000 </r>
       <r>    9.9780    0.0000 </r>
       <r>   11.9309    0.0000 </r>
      </set>
      <set comment="kpoint 24">
       <r>   -5.0899    1.0000 </r>
       <r>    1.5869    1.0000 </r>
       <r>    3.0051    1.0000 </r>
       <r>    4.9605    1.0000 </r>
       <r>    8.5876    0.0000 </r>
       <r>    9.3690    0.0000 </r>
       <r>    9.6696    0.0000 </r>
       <r>   11.2585    0.0000 </r>
      </set>
      <set comment="kpoint 25">
       <r>   -4.9310    1.0000 </r>
       <r>    1.7132    1.0000 </r>
       <r>    3.6239    1.0000 </r>
       <r>    3.6239    1.0000 </r>
       <r>    6.6670    0.0000 </r>
       <r>    8.4633    0.0000 </r>
       <r>   11.7467    0.0000 </r>
       <r>   11.7467    0.0000 </r>
      </set>
      <set comment="kpoint 26">
       <r>   -4.4258    1.0000 </r>
       <r>    0.7700    1.0000 </r>
       <r>    3.0949    1.0000 </r>
       <r>    3.3945    1.0000 </r>
       <r>    6.7995    0.0000 </r>
       <r>    8.1762    0.0000 </r>
       <r>   12.0264    0.0000 </r>
       <r>   12.2167    0.0000 </r>
      </set>
      <set comment="kpoint 27">
       <r>   -3.7774    1.0000 </r>
       <r>   -0.2444    1.0000 </r>
       <r>    2.3791    1.0000 </r>
       <r>    3.3330    1.0000 </r>
       <r>    7.0021    0.0000 </r>
       <r>    8.9165    0.0000 </r>
       <r>   11.8635    0.0000 </r>
       <r>   12.0874    0.0000 </r>
      </set>
      <set comment="kpoint 28">
       <r>   -3.1759    1.0000 </r>
       <r>   -1.0315    1.0000 </r>
       <r>    1.8151    1.0000 </r>
       <r>    3.4436    1.0000 </r>
       <r>    7.1356    0.0000 </r>
       <r>   10.3844    0.0000 </r>
       <r>   11.6910    0.0000 </r>
       <r>   11.7666    0.0000 </r>
      </set>
      <set comment="kpoint 29">
       <r>   -3.2318    1.0000 </r>
       <r>   -0.9531    1.0000 </r>
       <r>    1.5354    1.0000 </r>
       <r>    3.7139    1.0000 </r>
       <r>    7.4196    0.0000 </r>
       <r>   11.4098    0.0000 </r>
       <r>   11.4371    0.0000 </r>
       <r>   12.3122    0.0000 </r>
      </set>
      <set comment="kpoint 30">
       <r>   -3.8542    1.0000 </r>
       <r>   -0.2055    1.0000 </r>
       <r>    1.6951    1.0000 </r>
       <r>    4.1100    1.0000 </r>
       <r>    7.8535    0.0000 </r>
       <r>   10.8084    0.0000 </r>
       <r>   11.1672    0.0000 </r>
       <r>   11.9732    0.0000 </r>
      </set>
      <set comment="kpoint 31">
       <r>   -3.9758    1.0000 </r>
       <r>    0.1148    1.0000 </r>
       <r>    3.1229    1.0000 </r>
       <r>    3.1229    1.0000 </r>
       <r>    6.3192    0.0038 </r>
       <r>    7.3407    0.0000 </r>
       <r>   13.3968    0.0000 </r>
       <r>   13.3968    0.0000 </r>
      </set>
      <set comment="kpoint 32">
       <r>   -3.3639    1.0000 </r>
       <r>   -0.6900    1.0000 </r>
       <r>    2.5987    1.0000 </r>
       <r>    3.0186    1.0000 </r>
       <r>    6.5278    0.0000 </r>
       <r>    7.3488    0.0000 </r>
       <r>   13.7177    0.0000 </r>
       <r>   13.7259    0.0000 </r>
      </set>
      <set comment="kpoint 33">
       <r>   -2.7020    1.0000 </r>
       <r>   -1.3965    1.0000 </r>
       <r>    1.8364    1.0000 </r>
       <r>    3.0905    1.0000 </r>
       <r>    6.6978    0.0000 </r>
       <r>    8.5180    0.0000 </r>
       <r>   13.4447    0.0000 </r>
       <r>   13.5795    0.0000 </r>
      </set>
      <set comment="kpoint 34">
       <r>   -2.6420    1.0000 </r>
       <r>   -1.4261    1.0000 </r>
       <r>    1.3605    1.0000 </r>
       <r>    3.3314    1.0000 </r>
       <r>    6.9712    0.0000 </r>
       <r>   10.2262    0.0000 </r>
       <r>   12.7655    0.0000 </r>
       <r>   13.3083    0.0000 </r>
      </set>
      <set comment="kpoint 35">
       <r>   -2.7886    1.0000 </r>
       <r>   -1.4075    1.0000 </r>
       <r>    2.8671    1.0000 </r>
       <r>    2.8671    1.0000 </r>
       <r>    6.2837    0.0077 </r>
       <r>    6.6116    0.0000 </r>
       <r>   15.0688    0.0000 </r>
       <r>   15.0689    0.0000 </r>
      </set>
      <set comment="kpoint 36">
       <r>   -2.1541    1.0000 </r>
       <r>   -2.0421    1.0000 </r>
       <r>    2.4354    1.0000 </r>
       <r>    2.8918    1.0000 </r>
       <r>    6.4646    0.0001 </r>
       <r>    7.0397    0.0000 </r>
       <r>   14.9831    0.0000 </r>
       <r>   15.2107    0.0000 </r>
      </set>
      <set comment="kpoint 37">
       <r>   -5.4924    1.0000 </r>
       <r>    2.6198    1.0000 </r>
       <r>    3.8383    1.0000 </r>
       <r>    4.8274    1.0000 </r>
       <r>    7.9800    0.0000 </r>
       <r>    9.2046    0.0000 </r>
       <r>    9.9938    0.0000 </r>
       <r>   10.4188    0.0000 </r>
      </set>
      <set comment="kpoint 38">
       <r>   -4.9879    1.0000 </r>
       <r>    1.3172    1.0000 </r>
       <r>    3.2800    1.0000 </r>
       <r>    4.5126    1.0000 </r>
       <r>    8.2864    0.0000 </r>
       <r>    9.1683    0.0000 </r>
       <r>   10.3261    0.0000 </r>
       <r>   10.5367    0.0000 </r>
      </set>
      <set comment="kpoint 39">
       <r>   -4.3412    1.0000 </r>
       <r>   -0.0061    1.0000 </r>
       <r>    3.0218    1.0000 </r>
       <r>    4.1740    1.0000 </r>
       <r>    8.3120    0.0000 </r>
       <r>    8.9900    0.0000 </r>
       <r>   10.4202    0.0000 </r>
       <r>   11.3697    0.0000 </r>
      </set>
      <set comment="kpoint 40">
       <r>   -3.7398    1.0000 </r>
       <r>   -0.9701    1.0000 </r>
       <r>    2.9212    1.0000 </r>
       <r>    3.9671    1.0000 </r>
       <r>    8.2795    0.0000 </r>
       <r>    8.8012    0.0000 </r>
       <r>   10.3570    0.0000 </r>
       <r>   12.8189    0.0000 </r>
      </set>
      <set comment="kpoint 41">
       <r>   -4.8053    1.0000 </r>
       <r>    1.3371    1.0000 </r>
       <r>    3.1317    1.0000 </r>
       <r>    3.8363    1.0000 </r>
       <r>    7.4261    0.0000 </r>
       <r>    8.9537    0.0000 </r>
       <r>   10.5940    0.0000 </r>
       <r>   11.6324    0.0000 </r>
      </set>
      <set comment="kpoint 42">
       <r>   -4.1979    1.0000 </r>
       <r>    0.2718    1.0000 </r>
       <r>    2.5628    1.0000 </r>
       <r>    3.5285    1.0000 </r>
       <r>    7.7872    0.0000 </r>
       <r>    9.3636    0.0000 </r>
       <r>   10.2806    0.0000 </r>
       <r>   12.0242    0.0000 </r>
      </set>
      <set comment="kpoint 43">
       <r>   -3.5377    1.0000 </r>
       <r>   -0.7204    1.0000 </r>
       <r>    2.1807    1.0000 </r>
       <r>    3.3759    1.0000 </r>
       <r>    7.9196    0.0000 </r>
       <r>    9.8989    0.0000 </r>
       <r>   10.7076    0.0000 </r>
       <r>   11.9800    0.0000 </r>
      </set>
      <set comment="kpoint 44">
       <r>   -3.2774    1.0000 </r>
       <r>   -1.0620    1.0000 </r>
       <r>    1.9543    1.0000 </r>
       <r>    3.4638    1.0000 </r>
       <r>    8.1289    0.0000 </r>
       <r>    9.6347    0.0000 </r>
       <r>   11.8648    0.0000 </r>
       <r>   12.3841    0.0000 </r>
      </set>
      <set comment="kpoint 45">
       <r>   -3.7731    1.0000 </r>
       <r>   -0.3861    1.0000 </r>
       <r>    1.9468    1.0000 </r>
       <r>    3.7543    1.0000 </r>
       <r>    8.4835    0.0000 </r>
       <r>    9.4478    0.0000 </r>
       <r>   11.1615    0.0000 </r>
       <r>   11.8051    0.0000 </r>
      </set>
      <set comment="kpoint 46">
       <r>   -4.4365    1.0000 </r>
       <r>    0.5811    1.0000 </r>
       <r>    2.3213    1.0000 </r>
       <r>    4.1617    1.0000 </r>
       <r>    8.9095    0.0000 </r>
       <r>    9.0317    0.0000 </r>
       <r>   10.2918    0.0000 </r>
       <r>   11.3444    0.0000 </r>
      </set>
      <set comment="kpoint 47">
       <r>   -3.8688    1.0000 </r>
       <r>   -0.0207    1.0000 </r>
       <r>    2.6625    1.0000 </r>
       <r>    3.0485    1.0000 </r>
       <r>    7.0772    0.0000 </r>
       <r>    7.9329    0.0000 </r>
       <r>   11.9641    0.0000 </r>
       <r>   13.3668    0.0000 </r>
      </set>
      <set comment="kpoint 48">
       <r>   -3.2000    1.0000 </r>
       <r>   -0.8325    1.0000 </r>
       <r>    2.0318    1.0000 </r>
       <r>    2.8734    1.0000 </r>
       <r>    7.4218    0.0000 </r>
       <r>    8.7357    0.0000 </r>
       <r>   11.6160    0.0000 </r>
       <r>   13.7229    0.0000 </r>
      </set>
      <set comment="kpoint 49">
       <r>   -2.7412    1.0000 </r>
       <r>   -1.3222    1.0000 </r>
       <r>    1.5200    1.0000 </r>
       <r>    2.9876    1.0000 </r>
       <r>    7.6339    0.0000 </r>
       <r>   10.2950    0.0000 </r>
       <r>   11.3134    0.0000 </r>
       <r>   12.9011    0.0000 </r>
      </set>
      <set comment="kpoint 50">
       <r>   -3.1211    1.0000 </r>
       <r>   -0.9271    1.0000 </r>
       <r>    1.4175    1.0000 </r>
       <r>    3.3054    1.0000 </r>
       <r>    7.9997    0.0000 </r>
       <r>   10.7028    0.0000 </r>
       <r>   11.4254    0.0000 </r>
       <r>   12.3157    0.0000 </r>
      </set>
      <set comment="kpoint 51">
       <r>   -2.7172    1.0000 </r>
       <r>   -1.4061    1.0000 </r>
       <r>    2.4738    1.0000 </r>
       <r>    2.5940    1.0000 </r>
       <r>    7.0122    0.0000 </r>
       <r>    7.2836    0.0000 </r>
       <r>   13.4844    0.0000 </r>
       <r>   14.8671    0.0000 </r>
      </set>
      <set comment="kpoint 52">
       <r>   -2.2225    1.0000 </r>
       <r>   -1.8458    1.0000 </r>
       <r>    1.8283    1.0000 </r>
       <r>    2.6655    1.0000 </r>
       <r>    7.2921    0.0000 </r>
       <r>    8.5294    0.0000 </r>
       <r>   13.0340    0.0000 </r>
       <r>   13.2637    0.0000 </r>
      </set>
      <set comment="kpoint 53">
       <r>   -3.5647    1.0000 </r>
       <r>   -0.4085    1.0000 </r>
       <r>    1.9193    1.0000 </r>
       <r>    3.0730    1.0000 </r>
       <r>    8.7173    0.0000 </r>
       <r>    9.3728    0.0000 </r>
       <r>    9.9058    0.0000 </r>
       <r>   13.2660    0.0000 </r>
      </set>
      <set comment="kpoint 54">
       <r>   -2.9419    1.0000 </r>
       <r>   -1.0993    1.0000 </r>
       <r>    1.6429    1.0000 </r>
       <r>    2.7585    1.0000 </r>
       <r>    9.0923    0.0000 </r>
       <r>    9.4383    0.0000 </r>
       <r>   10.6992    0.0000 </r>
       <r>   12.5503    0.0000 </r>
      </set>
      <set comment="kpoint 55">
       <r>   -2.5363    1.0000 </r>
       <r>   -1.4505    1.0000 </r>
       <r>    1.8717    1.0000 </r>
       <r>    2.2487    1.0000 </r>
       <r>    8.6384    0.0000 </r>
       <r>    8.8488    0.0000 </r>
       <r>   11.2078    0.0000 </r>
       <r>   12.7870    0.0000 </r>
      </set>
      <set comment="kpoint 56">
       <r>   -2.3412    1.0000 </r>
       <r>   -1.6125    1.0000 </r>
       <r>    1.5981    1.0000 </r>
       <r>    2.2842    1.0000 </r>
       <r>    8.9868    0.0000 </r>
       <r>   10.2690    0.0000 </r>
       <r>   10.9728    0.0000 </r>
       <r>   10.9853    0.0000 </r>
      </set>
     </set>
    </set>
   </array>
  </eigenvalues>
  <separator name="orbital magnetization" >
   <v name="MAGDIPOLOUT">      0.00000000      0.00000000      0.00000000</v>
  </separator>
  <dos>
   <i name="efermi">      5.94137722 </i>
   <total>
    <array>
     <dimension dim="1">gridpoints</dimension>
     <dimension dim="2">spin</dimension>
     <field>energy</field>
     <field>total</field>
     <field>integrated</field>
     <set>
      <set comment="spin 1">
       <r>    -8.1941     0.0000     0.0000 </r>
       <r>    -8.1094     0.0000     0.0000 </r>
       <r>    -8.0248     0.0000     0.0000 </r>
       <r>    -7.9401     0.0000     0.0000 </r>
       <r>    -7.8554     0.0000     0.0000 </r>
       <r>    -7.7707     0.0000     0.0000 </r>
       <r>    -7.6860     0.0000     0.0000 </r>
       <r>    -7.6013     0.0000     0.0000 </r>
       <r>    -7.5167     0.0000     0.0000 </r>
       <r>    -7.4320     0.0000     0.0000 </r>
       <r>    -7.3473     0.0000     0.0000 </r>
       <r>    -7.2626     0.0000     0.0000 </r>
       <r>    -7.1779     0.0000     0.0000 </r>
       <r>    -7.0932     0.0000     0.0000 </r>
       <r>    -7.0086     0.0000     0.0000 </r>
       <r>    -6.9239     0.0000     0.0000 </r>
       <r>    -6.8392     0.0000     0.0000 </r>
       <r>    -6.7545     0.0000     0.0000 </r>
       <r>    -6.6698     0.0000     0.0000 </r>
       <r>    -6.5851     0.0001     0.0000 </r>
       <r>    -6.5005     0.0005     0.0001 </r>
       <r>    -6.4158     0.0025     0.0003 </r>
       <r>    -6.3311     0.0089     0.0010 </r>
       <r>    -6.2464     0.0243     0.0031 </r>
       <r>    -6.1617     0.0513     0.0074 </r>
       <r>    -6.0770     0.0873     0.0148 </r>
       <r>    -5.9924     0.1281     0.0256 </r>
       <r>    -5.9077     0.1699     0.0400 </r>
       <r>    -5.8230     0.2044     0.0573 </r>
       <r>    -5.7383     0.2239     0.0763 </r>
       <r>    -5.6536     0.2403     0.0966 </r>
       <r>    -5.5690     0.2729     0.1198 </r>
       <r>    -5.4843     0.3146     0.1464 </r>
       <r>    -5.3996     0.3396     0.1752 </r>
       <r>    -5.3149     0.3395     0.2039 </r>
       <r>    -5.2302     0.3308     0.2319 </r>
       <r>    -5.1455     0.3423     0.2609 </r>
       <r>    -5.0609     0.3919     0.2941 </r>
       <r>    -4.9762     0.4556     0.3327 </r>
       <r>    -4.8915     0.4872     0.3739 </r>
       <r>    -4.8068     0.4761     0.4143 </r>
       <r>    -4.7221     0.4469     0.4521 </r>
       <r>    -4.6374     0.4285     0.4884 </r>
       <r>    -4.5528     0.4536     0.5268 </r>
       <r>    -4.4681     0.5381     0.5724 </r>
       <r>    -4.3834     0.6408     0.6266 </r>
       <r>    -4.2987     0.6930     0.6853 </r>
       <r>    -4.2140     0.6725     0.7423 </r>
       <r>    -4.1293     0.6196     0.7947 </r>
       <r>    -4.0447     0.5984     0.8454 </r>
       <r>    -3.9600     0.6610     0.9014 </r>
       <r>    -3.8753     0.8057     0.9696 </r>
       <r>    -3.7906     0.9436     1.0495 </r>
       <r>    -3.7059     0.9675     1.1314 </r>
       <r>    -3.6212     0.8752     1.2056 </r>
       <r>    -3.5366     0.7522     1.2693 </r>
       <r>    -3.4519     0.6703     1.3260 </r>
       <r>    -3.3672     0.6669     1.3825 </r>
       <r>    -3.2825     0.7336     1.4446 </r>
       <r>    -3.1978     0.7837     1.5110 </r>
       <r>    -3.1131     0.7314     1.5729 </r>
       <r>    -3.0285     0.6045     1.6241 </r>
       <r>    -2.9438     0.5071     1.6670 </r>
       <r>    -2.8591     0.4989     1.7093 </r>
       <r>    -2.7744     0.5505     1.7559 </r>
       <r>    -2.6897     0.5780     1.8049 </r>
       <r>    -2.6051     0.5209     1.8490 </r>
       <r>    -2.5204     0.4038     1.8832 </r>
       <r>    -2.4357     0.3025     1.9088 </r>
       <r>    -2.3510     0.2596     1.9308 </r>
       <r>    -2.2663     0.2571     1.9525 </r>
       <r>    -2.1816     0.2532     1.9740 </r>
       <r>    -2.0970     0.2266     1.9932 </r>
       <r>    -2.0123     0.1897     2.0092 </r>
       <r>    -1.9276     0.1648     2.0232 </r>
       <r>    -1.8429     0.1584     2.0366 </r>
       <r>    -1.7582     0.1662     2.0507 </r>
       <r>    -1.6735     0.1985     2.0675 </r>
       <r>    -1.5889     0.2805     2.0912 </r>
       <r>    -1.5042     0.4193     2.1267 </r>
       <r>    -1.4195     0.5742     2.1754 </r>
       <r>    -1.3348     0.6870     2.2335 </r>
       <r>    -1.2501     0.7658     2.2984 </r>
       <r>    -1.1654     0.8836     2.3732 </r>
       <r>    -1.0808     1.0499     2.4621 </r>
       <r>    -0.9961     1.1669     2.5609 </r>
       <r>    -0.9114     1.1612     2.6593 </r>
       <r>    -0.8267     1.0656     2.7495 </r>
       <r>    -0.7420     0.9342     2.8286 </r>
       <r>    -0.6573     0.7824     2.8949 </r>
       <r>    -0.5727     0.6481     2.9497 </r>
       <r>    -0.4880     0.5984     3.0004 </r>
       <r>    -0.4033     0.6219     3.0531 </r>
       <r>    -0.3186     0.6210     3.1057 </r>
       <r>    -0.2339     0.5537     3.1526 </r>
       <r>    -0.1492     0.4801     3.1932 </r>
       <r>    -0.0646     0.4517     3.2315 </r>
       <r>     0.0201     0.4408     3.2688 </r>
       <r>     0.1048     0.4105     3.3036 </r>
       <r>     0.1895     0.3841     3.3361 </r>
       <r>     0.2742     0.3935     3.3694 </r>
       <r>     0.3588     0.4120     3.4043 </r>
       <r>     0.4435     0.3929     3.4376 </r>
       <r>     0.5282     0.3382     3.4662 </r>
       <r>     0.6129     0.2933     3.4911 </r>
       <r>     0.6976     0.2924     3.5158 </r>
       <r>     0.7823     0.3191     3.5428 </r>
       <r>     0.8669     0.3174     3.5697 </r>
       <r>     0.9516     0.2554     3.5914 </r>
       <r>     1.0363     0.1743     3.6061 </r>
       <r>     1.1210     0.1558     3.6193 </r>
       <r>     1.2057     0.2509     3.6406 </r>
       <r>     1.2904     0.4387     3.6777 </r>
       <r>     1.3750     0.6412     3.7320 </r>
       <r>     1.4597     0.7926     3.7991 </r>
       <r>     1.5444     0.8799     3.8736 </r>
       <r>     1.6291     0.9204     3.9516 </r>
       <r>     1.7138     0.9580     4.0327 </r>
       <r>     1.7985     1.0484     4.1215 </r>
       <r>     1.8831     1.1717     4.2207 </r>
       <r>     1.9678     1.2190     4.3239 </r>
       <r>     2.0525     1.1368     4.4202 </r>
       <r>     2.1372     1.0090     4.5056 </r>
       <r>     2.2219     0.9442     4.5856 </r>
       <r>     2.3066     0.9671     4.6675 </r>
       <r>     2.3912     1.0531     4.7567 </r>
       <r>     2.4759     1.1746     4.8561 </r>
       <r>     2.5606     1.2798     4.9645 </r>
       <r>     2.6453     1.3044     5.0750 </r>
       <r>     2.7300     1.2656     5.1822 </r>
       <r>     2.8147     1.2822     5.2907 </r>
       <r>     2.8993     1.4249     5.4114 </r>
       <r>     2.9840     1.5926     5.5463 </r>
       <r>     3.0687     1.6175     5.6832 </r>
       <r>     3.1534     1.4823     5.8088 </r>
       <r>     3.2381     1.3520     5.9233 </r>
       <r>     3.3227     1.3538     6.0379 </r>
       <r>     3.4074     1.4115     6.1574 </r>
       <r>     3.4921     1.3810     6.2744 </r>
       <r>     3.5768     1.2750     6.3823 </r>
       <r>     3.6615     1.2420     6.4875 </r>
       <r>     3.7462     1.3436     6.6013 </r>
       <r>     3.8308     1.4608     6.7250 </r>
       <r>     3.9155     1.4556     6.8483 </r>
       <r>     4.0002     1.3417     6.9619 </r>
       <r>     4.0849     1.2346     7.0664 </r>
       <r>     4.1696     1.1778     7.1662 </r>
       <r>     4.2543     1.1090     7.2601 </r>
       <r>     4.3389     1.0043     7.3451 </r>
       <r>     4.4236     0.9352     7.4243 </r>
       <r>     4.5083     0.9308     7.5031 </r>
       <r>     4.5930     0.9141     7.5806 </r>
       <r>     4.6777     0.8325     7.6511 </r>
       <r>     4.7624     0.7322     7.7131 </r>
       <r>     4.8470     0.6534     7.7684 </r>
       <r>     4.9317     0.5689     7.8166 </r>
       <r>     5.0164     0.4619     7.8557 </r>
       <r>     5.1011     0.3657     7.8866 </r>
       <r>     5.1858     0.3025     7.9123 </r>
       <r>     5.2705     0.2538     7.9338 </r>
       <r>     5.3551     0.2079     7.9514 </r>
       <r>     5.4398     0.1750     7.9662 </r>
       <r>     5.5245     0.1514     7.9790 </r>
       <r>     5.6092     0.1184     7.9890 </r>
       <r>     5.6939     0.0745     7.9953 </r>
       <r>     5.7786     0.0363     7.9984 </r>
       <r>     5.8632     0.0139     7.9996 </r>
       <r>     5.9479     0.0052     8.0000 </r>
       <r>     6.0326     0.0061     8.0005 </r>
       <r>     6.1173     0.0167     8.0020 </r>
       <r>     6.2020     0.0401     8.0054 </r>
       <r>     6.2866     0.0777     8.0119 </r>
       <r>     6.3713     0.1287     8.0228 </r>
       <r>     6.4560     0.1888     8.0388 </r>
       <r>     6.5407     0.2474     8.0598 </r>
       <r>     6.6254     0.2914     8.0845 </r>
       <r>     6.7101     0.3166     8.1113 </r>
       <r>     6.7947     0.3372     8.1398 </r>
       <r>     6.8794     0.3844     8.1724 </r>
       <r>     6.9641     0.4777     8.2128 </r>
       <r>     7.0488     0.5916     8.2629 </r>
       <r>     7.1335     0.6914     8.3215 </r>
       <r>     7.2182     0.7902     8.3884 </r>
       <r>     7.3028     0.9093     8.4654 </r>
       <r>     7.3875     1.0129     8.5512 </r>
       <r>     7.4722     1.0569     8.6407 </r>
       <r>     7.5569     1.0686     8.7312 </r>
       <r>     7.6416     1.1134     8.8255 </r>
       <r>     7.7263     1.2178     8.9286 </r>
       <r>     7.8109     1.3566     9.0435 </r>
       <r>     7.8956     1.4666     9.1677 </r>
       <r>     7.9803     1.4757     9.2926 </r>
       <r>     8.0650     1.3872     9.4101 </r>
       <r>     8.1497     1.3064     9.5207 </r>
       <r>     8.2344     1.3055     9.6313 </r>
       <r>     8.3190     1.3251     9.7435 </r>
       <r>     8.4037     1.2828     9.8521 </r>
       <r>     8.4884     1.1939     9.9532 </r>
       <r>     8.5731     1.1270    10.0487 </r>
       <r>     8.6578     1.1468    10.1458 </r>
       <r>     8.7425     1.3112    10.2568 </r>
       <r>     8.8271     1.6141    10.3935 </r>
       <r>     8.9118     1.9262    10.5566 </r>
       <r>     8.9965     2.0781    10.7326 </r>
       <r>     9.0812     2.0288    10.9044 </r>
       <r>     9.1659     1.8929    11.0647 </r>
       <r>     9.2505     1.7923    11.2165 </r>
       <r>     9.3352     1.7404    11.3639 </r>
       <r>     9.4199     1.6560    11.5041 </r>
       <r>     9.5046     1.4698    11.6286 </r>
       <r>     9.5893     1.2300    11.7327 </r>
       <r>     9.6740     1.0581    11.8223 </r>
       <r>     9.7586     1.0194    11.9087 </r>
       <r>     9.8433     1.0774    11.9999 </r>
       <r>     9.9280     1.1318    12.0958 </r>
       <r>    10.0127     1.1136    12.1901 </r>
       <r>    10.0974     1.0967    12.2829 </r>
       <r>    10.1821     1.2417    12.3881 </r>
       <r>    10.2667     1.5641    12.5205 </r>
       <r>    10.3514     1.8494    12.6771 </r>
       <r>    10.4361     1.8887    12.8371 </r>
       <r>    10.5208     1.7098    12.9819 </r>
       <r>    10.6055     1.4842    13.1076 </r>
       <r>    10.6902     1.3048    13.2181 </r>
       <r>    10.7748     1.1509    13.3155 </r>
       <r>    10.8595     0.9978    13.4000 </r>
       <r>    10.9442     0.8671    13.4734 </r>
       <r>    11.0289     0.7913    13.5404 </r>
       <r>    11.1136     0.7978    13.6080 </r>
       <r>    11.1983     0.8987    13.6841 </r>
       <r>    11.2829     1.0501    13.7730 </r>
       <r>    11.3676     1.1485    13.8703 </r>
       <r>    11.4523     1.1161    13.9648 </r>
       <r>    11.5370     1.0032    14.0498 </r>
       <r>    11.6217     0.9499    14.1302 </r>
       <r>    11.7064     1.0289    14.2173 </r>
       <r>    11.7910     1.1882    14.3179 </r>
       <r>    11.8757     1.3250    14.4301 </r>
       <r>    11.9604     1.3514    14.5446 </r>
       <r>    12.0451     1.2282    14.6486 </r>
       <r>    12.1298     1.0110    14.7342 </r>
       <r>    12.2145     0.8299    14.8045 </r>
       <r>    12.2991     0.7575    14.8686 </r>
       <r>    12.3838     0.7397    14.9313 </r>
       <r>    12.4685     0.6950    14.9901 </r>
       <r>    12.5532     0.6149    15.0422 </r>
       <r>    12.6379     0.5536    15.0891 </r>
       <r>    12.7225     0.5664    15.1370 </r>
       <r>    12.8072     0.6410    15.1913 </r>
       <r>    12.8919     0.6896    15.2497 </r>
       <r>    12.9766     0.6444    15.3043 </r>
       <r>    13.0613     0.5430    15.3503 </r>
       <r>    13.1460     0.4950    15.3922 </r>
       <r>    13.2306     0.5723    15.4406 </r>
       <r>    13.3153     0.7253    15.5021 </r>
       <r>    13.4000     0.8293    15.5723 </r>
       <r>    13.4847     0.8248    15.6421 </r>
       <r>    13.5694     0.7693    15.7073 </r>
       <r>    13.6541     0.7258    15.7688 </r>
       <r>    13.7387     0.6609    15.8247 </r>
       <r>    13.8234     0.5114    15.8680 </r>
       <r>    13.9081     0.3055    15.8939 </r>
       <r>    13.9928     0.1343    15.9053 </r>
       <r>    14.0775     0.0425    15.9089 </r>
       <r>    14.1622     0.0096    15.9097 </r>
       <r>    14.2468     0.0015    15.9098 </r>
       <r>    14.3315     0.0002    15.9098 </r>
       <r>    14.4162     0.0003    15.9099 </r>
       <r>    14.5009     0.0018    15.9100 </r>
       <r>    14.5856     0.0084    15.9107 </r>
       <r>    14.6703     0.0278    15.9131 </r>
       <r>    14.7549     0.0671    15.9188 </r>
       <r>    14.8396     0.1199    15.9289 </r>
       <r>    14.9243     0.1639    15.9428 </r>
       <r>    15.0090     0.1793    15.9580 </r>
       <r>    15.0937     0.1655    15.9720 </r>
       <r>    15.1784     0.1344    15.9834 </r>
       <r>    15.2630     0.0962    15.9915 </r>
       <r>    15.3477     0.0582    15.9965 </r>
       <r>    15.4324     0.0281    15.9988 </r>
       <r>    15.5171     0.0103    15.9997 </r>
       <r>    15.6018     0.0028    15.9999 </r>
       <r>    15.6864     0.0005    16.0000 </r>
       <r>    15.7711     0.0001    16.0000 </r>
       <r>    15.8558     0.0000    16.0000 </r>
       <r>    15.9405     0.0000    16.0000 </r>
       <r>    16.0252     0.0000    16.0000 </r>
       <r>    16.1099     0.0000    16.0000 </r>
       <r>    16.1945     0.0000    16.0000 </r>
       <r>    16.2792     0.0000    16.0000 </r>
       <r>    16.3639     0.0000    16.0000 </r>
       <r>    16.4486     0.0000    16.0000 </r>
       <r>    16.5333     0.0000    16.0000 </r>
       <r>    16.6180     0.0000    16.0000 </r>
       <r>    16.7026     0.0000    16.0000 </r>
       <r>    16.7873     0.0000    16.0000 </r>
       <r>    16.8720     0.0000    16.0000 </r>
       <r>    16.9567     0.0000    16.0000 </r>
       <r>    17.0414     0.0000    16.0000 </r>
       <r>    17.1261     0.0000    16.0000 </r>
       <r>    17.2107     0.0000    16.0000 </r>
      </set>
     </set>
    </array>
   </total>
  </dos>
 </calculation>
 <structure name="finalpos" >
  <crystal>
   <varray name="basis" >
    <v>      -0.00000000       2.73296615       2.73296615 </v>
    <v>       2.73296615      -0.00000000       2.73296615 </v>
    <v>       2.73296615       2.73296615       0.00000000 </v>
   </varray>
   <i name="volume">     40.82561660 </i>
   <varray name="rec_basis" >
    <v>      -0.18295141       0.18295141       0.18295141 </v>
    <v>       0.18295141      -0.18295141       0.18295141 </v>
    <v>       0.18295141       0.18295141      -0.18295141 </v>
   </varray>
  </crystal>
  <varray name="positions" >
   <v>       0.50000000       0.50000000       0.50000000 </v>
   <v>       0.75000000       0.75000000       0.75000000 </v>
  </varray>
 </structure>
</modeling>
