<?xml version="1.0" encoding="ISO-8859-1"?>
<modeling>
 <generator>
  <i name="program" type="string">vasp </i>
  <i name="version" type="string">5.4.4.18Apr17-6-g9f103f2a35  </i>
  <i name="subversion" type="string">(build Dec 09 2018 21:25:21) complex            parallel </i>
  <i name="platform" type="string">IFC18.0.1.163_CrayMPICH7.7.0_MKL18.0.1.163 </i>
  <i name="date" type="string">2019 03 19 </i>
  <i name="time" type="string">13:40:00 </i>
 </generator>
 <incar>
  <i type="string" name="PREC">normal</i>
  <i type="int" name="IBRION">     2</i>
  <i name="EDIFF">      0.00040000</i>
  <i name="EDIFFG">     -0.01000000</i>
  <i type="int" name="NSW">    15</i>
  <i type="int" name="ISIF">     2</i>
  <i name="ENCUT">    300.00000000</i>
  <i type="int" name="NBANDS">     8</i>
  <i type="logical" name="LREAL"> F  </i>
  <i type="int" name="ISMEAR">     0</i>
  <i name="SIGMA">      0.20000000</i>
  <v type="int" name="KPOINT_BSE">    -1     0     0     0</v>
 </incar>
 <structure name="primitive_cell" >
  <crystal>
   <varray name="basis" >
    <v>       0.00000000       2.71500000       2.71500000 </v>
    <v>       2.71500000       0.00000000       2.71500000 </v>
    <v>       2.71500000       2.71500000       0.00000000 </v>
   </varray>
   <i name="volume">     40.02575175 </i>
   <varray name="rec_basis" >
    <v>      -0.18416206       0.18416206       0.18416206 </v>
    <v>       0.18416206      -0.18416206       0.18416206 </v>
    <v>       0.18416206       0.18416206      -0.18416206 </v>
   </varray>
  </crystal>
  <varray name="positions" >
   <v>      -0.50000000      -0.50000000      -0.50000000 </v>
   <v>      -0.25000000      -0.25000000      -0.25000000 </v>
  </varray>
 </structure>
 <varray name="primitive_index" >
  <v type="int" >        1 </v>
  <v type="int" >        2 </v>
 </varray>
 <kpoints>
  <generation param="Monkhorst-Pack">
   <v type="int" name="divisions">       8        8        8 </v>
   <v name="usershift">      0.00000000       0.00000000       0.00000000 </v>
   <v name="genvec1">      0.12500000       0.00000000      -0.00000000 </v>
   <v name="genvec2">      0.00000000       0.12500000       0.00000000 </v>
   <v name="genvec3">     -0.00000000      -0.00000000       0.12500000 </v>
   <v name="shift">      0.50000000       0.50000000       0.50000000 </v>
  </generation>
  <varray name="kpointlist" >
   <v>       0.06250000       0.06250000       0.06250000 </v>
   <v>       0.18750000       0.06250000       0.06250000 </v>
   <v>       0.31250000       0.06250000       0.06250000 </v>
   <v>       0.43750000       0.06250000       0.06250000 </v>
   <v>      -0.43750000       0.06250000       0.06250000 </v>
   <v>      -0.31250000       0.06250000       0.06250000 </v>
   <v>      -0.18750000       0.06250000       0.06250000 </v>
   <v>      -0.06250000       0.06250000       0.06250000 </v>
   <v>       0.18750000       0.18750000       0.06250000 </v>
   <v>       0.31250000       0.18750000       0.06250000 </v>
   <v>       0.43750000       0.18750000       0.06250000 </v>
   <v>      -0.43750000       0.18750000       0.06250000 </v>
   <v>      -0.31250000       0.18750000       0.06250000 </v>
   <v>      -0.18750000       0.18750000       0.06250000 </v>
   <v>      -0.06250000       0.18750000       0.06250000 </v>
   <v>       0.31250000       0.31250000       0.06250000 </v>
   <v>       0.43750000       0.31250000       0.06250000 </v>
   <v>      -0.43750000       0.31250000       0.06250000 </v>
   <v>      -0.31250000       0.31250000       0.06250000 </v>
   <v>      -0.18750000       0.31250000       0.06250000 </v>
   <v>      -0.06250000       0.31250000       0.06250000 </v>
   <v>       0.43750000       0.43750000       0.06250000 </v>
   <v>      -0.43750000       0.43750000       0.06250000 </v>
   <v>      -0.31250000       0.43750000       0.06250000 </v>
   <v>      -0.18750000       0.43750000       0.06250000 </v>
   <v>      -0.06250000       0.43750000       0.06250000 </v>
   <v>      -0.43750000      -0.43750000       0.06250000 </v>
   <v>      -0.31250000      -0.43750000       0.06250000 </v>
   <v>      -0.18750000      -0.43750000       0.06250000 </v>
   <v>      -0.31250000      -0.31250000       0.06250000 </v>
   <v>      -0.18750000      -0.31250000       0.06250000 </v>
   <v>      -0.18750000      -0.18750000       0.06250000 </v>
   <v>       0.18750000       0.18750000       0.18750000 </v>
   <v>       0.31250000       0.18750000       0.18750000 </v>
   <v>       0.43750000       0.18750000       0.18750000 </v>
   <v>      -0.43750000       0.18750000       0.18750000 </v>
   <v>      -0.31250000       0.18750000       0.18750000 </v>
   <v>      -0.18750000       0.18750000       0.18750000 </v>
   <v>       0.31250000       0.31250000       0.18750000 </v>
   <v>       0.43750000       0.31250000       0.18750000 </v>
   <v>      -0.43750000       0.31250000       0.18750000 </v>
   <v>      -0.31250000       0.31250000       0.18750000 </v>
   <v>      -0.18750000       0.31250000       0.18750000 </v>
   <v>       0.43750000       0.43750000       0.18750000 </v>
   <v>      -0.43750000       0.43750000       0.18750000 </v>
   <v>      -0.31250000       0.43750000       0.18750000 </v>
   <v>      -0.18750000       0.43750000       0.18750000 </v>
   <v>      -0.43750000      -0.43750000       0.18750000 </v>
   <v>      -0.31250000      -0.43750000       0.18750000 </v>
   <v>      -0.31250000      -0.31250000       0.18750000 </v>
   <v>       0.31250000       0.31250000       0.31250000 </v>
   <v>       0.43750000       0.31250000       0.31250000 </v>
   <v>      -0.43750000       0.31250000       0.31250000 </v>
   <v>      -0.31250000       0.31250000       0.31250000 </v>
   <v>       0.43750000       0.43750000       0.31250000 </v>
   <v>      -0.43750000       0.43750000       0.31250000 </v>
   <v>      -0.31250000       0.43750000       0.31250000 </v>
   <v>      -0.43750000      -0.43750000       0.31250000 </v>
   <v>       0.43750000       0.43750000       0.43750000 </v>
   <v>      -0.43750000       0.43750000       0.43750000 </v>
  </varray>
  <varray name="weights" >
   <v>       0.00390625 </v>
   <v>       0.01171875 </v>
   <v>       0.01171875 </v>
   <v>       0.01171875 </v>
   <v>       0.01171875 </v>
   <v>       0.01171875 </v>
   <v>       0.01171875 </v>
   <v>       0.01171875 </v>
   <v>       0.01171875 </v>
   <v>       0.02343750 </v>
   <v>       0.02343750 </v>
   <v>       0.02343750 </v>
   <v>       0.02343750 </v>
   <v>       0.02343750 </v>
   <v>       0.02343750 </v>
   <v>       0.01171875 </v>
   <v>       0.02343750 </v>
   <v>       0.02343750 </v>
   <v>       0.02343750 </v>
   <v>       0.02343750 </v>
   <v>       0.02343750 </v>
   <v>       0.01171875 </v>
   <v>       0.02343750 </v>
   <v>       0.02343750 </v>
   <v>       0.02343750 </v>
   <v>       0.02343750 </v>
   <v>       0.01171875 </v>
   <v>       0.02343750 </v>
   <v>       0.02343750 </v>
   <v>       0.01171875 </v>
   <v>       0.02343750 </v>
   <v>       0.01171875 </v>
   <v>       0.00390625 </v>
   <v>       0.01171875 </v>
   <v>       0.01171875 </v>
   <v>       0.01171875 </v>
   <v>       0.01171875 </v>
   <v>       0.01171875 </v>
   <v>       0.01171875 </v>
   <v>       0.02343750 </v>
   <v>       0.02343750 </v>
   <v>       0.02343750 </v>
   <v>       0.02343750 </v>
   <v>       0.01171875 </v>
   <v>       0.02343750 </v>
   <v>       0.02343750 </v>
   <v>       0.02343750 </v>
   <v>       0.01171875 </v>
   <v>       0.02343750 </v>
   <v>       0.01171875 </v>
   <v>       0.00390625 </v>
   <v>       0.01171875 </v>
   <v>       0.01171875 </v>
   <v>       0.01171875 </v>
   <v>       0.01171875 </v>
   <v>       0.02343750 </v>
   <v>       0.02343750 </v>
   <v>       0.01171875 </v>
   <v>       0.00390625 </v>
   <v>       0.01171875 </v>
  </varray>
 </kpoints>
 <parameters>
  <separator name="general" >
   <i type="string" name="SYSTEM">unknown system</i>
   <i type="logical" name="LCOMPAT"> F  </i>
  </separator>
  <separator name="electronic" >
   <i type="string" name="PREC">normal</i>
   <i name="ENMAX">    300.00000000</i>
   <i name="ENAUG">    322.06900000</i>
   <i name="EDIFF">      0.00040000</i>
   <i type="int" name="IALGO">    38</i>
   <i type="int" name="IWAVPR">    11</i>
   <i type="int" name="NBANDS">     8</i>
   <i name="NELECT">      8.00000000</i>
   <i type="int" name="TURBO">     0</i>
   <i type="int" name="IRESTART">     0</i>
   <i type="int" name="NREBOOT">     0</i>
   <i type="int" name="NMIN">     0</i>
   <i name="EREF">      0.00000000</i>
   <separator name="electronic smearing" >
    <i type="int" name="ISMEAR">     0</i>
    <i name="SIGMA">      0.20000000</i>
    <i name="KSPACING">      0.50000000</i>
    <i type="logical" name="KGAMMA"> T  </i>
   </separator>
   <separator name="electronic projectors" >
    <i type="logical" name="LREAL"> F  </i>
    <v name="ROPT">      0.00000000</v>
    <i type="int" name="LMAXPAW">  -100</i>
    <i type="int" name="LMAXMIX">     2</i>
    <i type="logical" name="NLSPLINE"> F  </i>
   </separator>
   <separator name="electronic startup" >
    <i type="int" name="ISTART">     0</i>
    <i type="int" name="ICHARG">     2</i>
    <i type="int" name="INIWAV">     1</i>
   </separator>
   <separator name="electronic spin" >
    <i type="int" name="ISPIN">     1</i>
    <i type="logical" name="LNONCOLLINEAR"> F  </i>
    <v name="MAGMOM">      1.00000000      1.00000000</v>
    <i name="NUPDOWN">     -1.00000000</i>
    <i type="logical" name="LSORBIT"> F  </i>
    <v name="SAXIS">      0.00000000      0.00000000      1.00000000</v>
    <i type="logical" name="LSPIRAL"> F  </i>
    <v name="QSPIRAL">      0.00000000      0.00000000      0.00000000</v>
    <i type="logical" name="LZEROZ"> F  </i>
   </separator>
   <separator name="electronic exchange-correlation" >
    <i type="logical" name="LASPH"> F  </i>
    <i type="logical" name="LMETAGGA"> F  </i>
   </separator>
   <separator name="electronic convergence" >
    <i type="int" name="NELM">    60</i>
    <i type="int" name="NELMDL">    -5</i>
    <i type="int" name="NELMIN">     2</i>
    <i name="ENINI">    300.00000000</i>
    <separator name="electronic convergence detail" >
     <i type="logical" name="LDIAG"> T  </i>
     <i type="logical" name="LSUBROT"> F  </i>
     <i name="WEIMIN">      0.00100000</i>
     <i name="EBREAK">      0.00001250</i>
     <i name="DEPER">      0.30000000</i>
     <i type="int" name="NRMM">     4</i>
     <i name="TIME">      0.40000000</i>
    </separator>
   </separator>
   <separator name="electronic mixer" >
    <i name="AMIX">      0.40000000</i>
    <i name="BMIX">      1.00000000</i>
    <i name="AMIN">      0.10000000</i>
    <i name="AMIX_MAG">      1.60000000</i>
    <i name="BMIX_MAG">      1.00000000</i>
    <separator name="electronic mixer details" >
     <i type="int" name="IMIX">     4</i>
     <i type="logical" name="MIXFIRST"> F  </i>
     <i type="int" name="MAXMIX">   -45</i>
     <i name="WC">    100.00000000</i>
     <i type="int" name="INIMIX">     1</i>
     <i type="int" name="MIXPRE">     1</i>
     <i type="int" name="MREMOVE">     5</i>
    </separator>
   </separator>
   <separator name="electronic dipolcorrection" >
    <i type="logical" name="LDIPOL"> F  </i>
    <i type="logical" name="LMONO"> F  </i>
    <i type="int" name="IDIPOL">     0</i>
    <i name="EPSILON">      1.00000000</i>
    <v name="DIPOL">   -100.00000000   -100.00000000   -100.00000000</v>
    <i name="EFIELD">      0.00000000</i>
   </separator>
  </separator>
  <separator name="grids" >
   <i type="int" name="NGX">    16</i>
   <i type="int" name="NGY">    16</i>
   <i type="int" name="NGZ">    16</i>
   <i type="int" name="NGXF">    32</i>
   <i type="int" name="NGYF">    32</i>
   <i type="int" name="NGZF">    32</i>
   <i type="logical" name="ADDGRID"> F  </i>
  </separator>
  <separator name="ionic" >
   <i type="int" name="NSW">    15</i>
   <i type="int" name="IBRION">     2</i>
   <i type="int" name="MDALGO">     0</i>
   <i type="int" name="ISIF">     2</i>
   <i name="PSTRESS">      0.00000000</i>
   <i name="EDIFFG">     -0.01000000</i>
   <i type="int" name="NFREE">     1</i>
   <i name="POTIM">      0.50000000</i>
   <i name="SMASS">     -3.00000000</i>
   <i name="SCALEE">      1.00000000</i>
  </separator>
  <separator name="ionic md" >
   <i name="TEBEG">      0.00010000</i>
   <i name="TEEND">      0.00010000</i>
   <i type="int" name="NBLOCK">     1</i>
   <i type="int" name="KBLOCK">    15</i>
   <i type="int" name="NPACO">   256</i>
   <i name="APACO">     16.00000000</i>
  </separator>
  <separator name="symmetry" >
   <i type="int" name="ISYM">     2</i>
   <i name="SYMPREC">      0.00001000</i>
  </separator>
  <separator name="dos" >
   <i type="int" name="LORBIT">     0</i>
   <v name="RWIGS">     -1.00000000</v>
   <i type="int" name="NEDOS">   301</i>
   <i name="EMIN">     10.00000000</i>
   <i name="EMAX">    -10.00000000</i>
   <i name="EFERMI">      0.00000000</i>
  </separator>
  <separator name="writing" >
   <i type="int" name="NWRITE">     2</i>
   <i type="logical" name="LWAVE"> T  </i>
   <i type="logical" name="LDOWNSAMPLE"> F  </i>
   <i type="logical" name="LCHARG"> T  </i>
   <i type="logical" name="LPARD"> F  </i>
   <i type="logical" name="LVTOT"> F  </i>
   <i type="logical" name="LVHAR"> F  </i>
   <i type="logical" name="LELF"> F  </i>
   <i type="logical" name="LOPTICS"> F  </i>
   <v name="STM">      0.00000000      0.00000000      0.00000000      0.00000000      0.00000000      0.00000000      0.00000000</v>
  </separator>
  <separator name="performance" >
   <i type="int" name="NPAR">     8</i>
   <i type="int" name="NSIM">     4</i>
   <i type="int" name="NBLK">    -1</i>
   <i type="logical" name="LPLANE"> T  </i>
   <i type="logical" name="LSCALAPACK"> T  </i>
   <i type="logical" name="LSCAAWARE"> F  </i>
   <i type="logical" name="LSCALU"> F  </i>
   <i type="logical" name="LASYNC"> F  </i>
   <i type="logical" name="LORBITALREAL"> F  </i>
  </separator>
  <separator name="miscellaneous" >
   <i type="int" name="IDIOT">     3</i>
   <i type="int" name="ISPECIAL">     0</i>
   <i type="logical" name="LMUSIC"> F  </i>
   <v name="POMASS">     28.08500000</v>
   <v name="DARWINR">      0.00000000</v>
   <v name="DARWINV">      1.00000000</v>
   <i type="logical" name="LCORR"> T  </i>
  </separator>
  <i type="logical" name="GGA_COMPAT"> T  </i>
  <i type="logical" name="LBERRY"> F  </i>
  <i type="int" name="ICORELEVEL">     0</i>
  <i type="logical" name="LDAU"> F  </i>
  <i type="int" name="I_CONSTRAINED_M">     0</i>
  <separator name="electronic exchange-correlation" >
   <i type="string" name="GGA">--</i>
   <i type="int" name="VOSKOWN">     0</i>
   <i type="logical" name="LHFCALC"> F  </i>
   <i type="string" name="PRECFOCK"></i>
   <i type="logical" name="LSYMGRAD"> F  </i>
   <i type="logical" name="LHFONE"> F  </i>
   <i type="logical" name="LRHFCALC"> F  </i>
   <i type="logical" name="LTHOMAS"> F  </i>
   <i type="logical" name="LMODELHF"> F  </i>
   <i name="ENCUT4O">     -1.00000000</i>
   <i type="int" name="EXXOEP">     0</i>
   <i type="int" name="FOURORBIT">     0</i>
   <i name="AEXX">      0.00000000</i>
   <i name="HFALPHA">      0.00000000</i>
   <i name="MCALPHA">      0.00000000</i>
   <i name="ALDAX">      1.00000000</i>
   <i name="AGGAX">      1.00000000</i>
   <i name="ALDAC">      1.00000000</i>
   <i name="AGGAC">      1.00000000</i>
   <i type="int" name="NKREDX">     1</i>
   <i type="int" name="NKREDY">     1</i>
   <i type="int" name="NKREDZ">     1</i>
   <i type="logical" name="SHIFTRED"> F  </i>
   <i type="logical" name="ODDONLY"> F  </i>
   <i type="logical" name="EVENONLY"> F  </i>
   <i type="int" name="LMAXFOCK">     0</i>
   <i type="int" name="NMAXFOCKAE">     0</i>
   <i type="logical" name="LFOCKAEDFT"> F  </i>
   <i name="HFSCREEN">      0.00000000</i>
   <i name="HFSCREENC">      0.00000000</i>
   <i type="int" name="NBANDSGWLOW">     0</i>
  </separator>
  <separator name="vdW DFT" >
   <i type="logical" name="LUSE_VDW"> F  </i>
   <i name="Zab_VDW">     -0.84910000</i>
   <i name="PARAM1">      0.12340000</i>
   <i name="PARAM2">      1.00000000</i>
   <i name="PARAM3">      0.00000000</i>
  </separator>
  <separator name="model GW" >
   <i type="int" name="MODEL_GW">     0</i>
   <i name="MODEL_EPS0">     12.00772552</i>
   <i name="MODEL_ALPHA">      1.00000000</i>
  </separator>
  <separator name="linear response parameters" >
   <i type="logical" name="LEPSILON"> F  </i>
   <i type="logical" name="LRPA"> F  </i>
   <i type="logical" name="LNABLA"> F  </i>
   <i type="logical" name="LVEL"> F  </i>
   <i type="int" name="KINTER">     0</i>
   <i name="CSHIFT">      0.10000000</i>
   <i name="OMEGAMAX">     -1.00000000</i>
   <i name="DEG_THRESHOLD">      0.00200000</i>
   <i name="RTIME">     -0.10000000</i>
   <i name="WPLASMAI">      0.00000000</i>
   <v name="DFIELD">      0.00000000      0.00000000      0.00000000</v>
   <v name="WPLASMA">      0.00000000      0.00000000      0.00000000      0.00000000      0.00000000      0.00000000      0.00000000      0.00000000      0.00000000</v>
  </separator>
  <separator name="orbital magnetization" >
   <i type="logical" name="NUCIND"> F  </i>
   <v name="MAGPOS">      0.00000000      0.00000000      0.00000000</v>
   <i type="logical" name="LNICSALL"> T  </i>
   <i type="logical" name="ORBITALMAG"> F  </i>
   <i type="logical" name="LMAGBLOCH"> F  </i>
   <i type="logical" name="LCHIMAG"> F  </i>
   <i type="logical" name="LGAUGE"> T  </i>
   <i type="int" name="MAGATOM">     0</i>
   <v name="MAGDIPOL">      0.00000000      0.00000000      0.00000000</v>
   <v name="AVECCONST">      0.00000000      0.00000000      0.00000000</v>
  </separator>
  <separator name="response functions" >
   <i type="logical" name="LADDER"> F  </i>
   <i type="logical" name="LRPAFORCE"> F  </i>
   <i type="logical" name="LFXC"> F  </i>
   <i type="logical" name="LHARTREE"> T  </i>
   <i type="int" name="IBSE">     0</i>
   <v type="int" name="KPOINT">    -1     0     0     0</v>
   <i type="logical" name="LTCTE"> F  </i>
   <i type="logical" name="LTETE"> F  </i>
   <i type="logical" name="LTRIPLET"> F  </i>
   <i type="logical" name="LFXCEPS"> F  </i>
   <i type="logical" name="LFXHEG"> F  </i>
   <i type="int" name="NATURALO">     2</i>
   <i type="logical" name="L2ORDER"> F  </i>
   <i type="logical" name="LMP2LT"> F  </i>
   <i type="logical" name="LUSEW"> F  </i>
   <i name="ENCUTGW">     -2.00000000</i>
   <i name="ENCUTGWSOFT">     -2.00000000</i>
   <i name="ENCUTLF">     -1.00000000</i>
   <i type="int" name="LMAXMP2">    -1</i>
   <i name="SCISSOR">      0.00000000</i>
   <i type="int" name="NOMEGA">     0</i>
   <i type="int" name="NOMEGAR">     0</i>
   <i type="int" name="NBANDSGW">    -1</i>
   <i type="int" name="NBANDSO">    -1</i>
   <i type="int" name="NBANDSV">    -1</i>
   <i type="int" name="NELM">     1</i>
   <i type="int" name="NELMHF">     1</i>
   <i type="int" name="DIM">     3</i>
   <i type="int" name="ANTIRES">     0</i>
   <i name="OMEGAMAX">    -30.00000000</i>
   <i name="OMEGAMIN">    -30.00000000</i>
   <i name="OMEGATL">   -200.00000000</i>
   <i type="int" name="OMEGAGRID">   140</i>
   <i name="CSHIFT">     -0.10000000</i>
   <i type="logical" name="SELFENERGY"> F  </i>
   <i type="logical" name="LSPECTRAL"> F  </i>
   <i type="logical" name="LSPECTRALGW"> F  </i>
   <i type="logical" name="LSINGLES"> F  </i>
   <i type="logical" name="LFERMIGW"> F  </i>
   <i type="logical" name="ODDONLYGW"> F  </i>
   <i type="logical" name="EVENONLYGW"> F  </i>
   <i type="int" name="NKREDLFX">     1</i>
   <i type="int" name="NKREDLFY">     1</i>
   <i type="int" name="NKREDLFZ">     1</i>
   <i type="int" name="MAXMEM">  2800</i>
   <i type="int" name="TELESCOPE">     0</i>
   <i type="int" name="TAUPAR">     1</i>
   <i type="int" name="OMEGAPAR">    -1</i>
   <i name="LAMBDA">      1.00000000</i>
  </separator>
  <separator name="External order field" >
   <i name="OFIELD_KAPPA">      0.00000000</i>
   <v name="OFIELD_K">      0.00000000      0.00000000      0.00000000</v>
   <i name="OFIELD_Q6_NEAR">      0.00000000</i>
   <i name="OFIELD_Q6_FAR">      0.00000000</i>
   <i name="OFIELD_A">      0.00000000</i>
  </separator>
 </parameters>
 <atominfo>
  <atoms>       2 </atoms>
  <types>       1 </types>
  <array name="atoms" >
   <dimension dim="1">ion</dimension>
   <field type="string">element</field>
   <field type="int">atomtype</field>
   <set>
    <rc><c>Si</c><c>   1</c></rc>
    <rc><c>Si</c><c>   1</c></rc>
   </set>
  </array>
  <array name="atomtypes" >
   <dimension dim="1">type</dimension>
   <field type="int">atomspertype</field>
   <field type="string">element</field>
   <field>mass</field>
   <field>valence</field>
   <field type="string">pseudopotential</field>
   <set>
    <rc><c>   2</c><c>Si</c><c>     28.08500000</c><c>      4.00000000</c><c> PAW_PBE Si 05Jan2001                   </c></rc>
   </set>
  </array>
 </atominfo>
 <structure name="initialpos" >
  <crystal>
   <varray name="basis" >
    <v>       0.00000000       2.71500000       2.71500000 </v>
    <v>       2.71500000       0.00000000       2.71500000 </v>
    <v>       2.71500000       2.71500000       0.00000000 </v>
   </varray>
   <i name="volume">     40.02575175 </i>
   <varray name="rec_basis" >
    <v>      -0.18416206       0.18416206       0.18416206 </v>
    <v>       0.18416206      -0.18416206       0.18416206 </v>
    <v>       0.18416206       0.18416206      -0.18416206 </v>
   </varray>
  </crystal>
  <varray name="positions" >
   <v>       0.50000000       0.50000000       0.50000000 </v>
   <v>       0.75000000       0.75000000       0.75000000 </v>
  </varray>
 </structure>
 <calculation>
  <scstep>
   <time name="dav">    0.42    0.43</time>
   <time name="total">    0.46    0.47</time>
   <energy>
    <i name="alphaZ">      3.36414203 </i>
    <i name="ewald">   -228.56352493 </i>
    <i name="hartreedc">    -11.00108243 </i>
    <i name="XCdc">    -18.60181216 </i>
    <i name="pawpsdc">     65.95520812 </i>
    <i name="pawaedc">    -30.76852678 </i>
    <i name="eentropy">     -0.01325721 </i>
    <i name="bandstr">     16.79235781 </i>
    <i name="atom">    206.12968587 </i>
    <i name="e_fr_energy">      3.29319031 </i>
    <i name="e_wo_entrp">      3.30644752 </i>
    <i name="e_0_energy">      3.29981892 </i>
   </energy>
  </scstep>
  <scstep>
   <time name="dav">    0.67    0.68</time>
   <time name="total">    0.68    0.69</time>
   <energy>
    <i name="e_fr_energy">    -10.87250941 </i>
    <i name="e_wo_entrp">    -10.87250804 </i>
    <i name="e_0_energy">    -10.87250873 </i>
   </energy>
  </scstep>
  <scstep>
   <time name="dav">    0.50    0.52</time>
   <time name="total">    0.51    0.52</time>
   <energy>
    <i name="e_fr_energy">    -11.01758347 </i>
    <i name="e_wo_entrp">    -11.01758231 </i>
    <i name="e_0_energy">    -11.01758289 </i>
   </energy>
  </scstep>
  <scstep>
   <time name="dav">    0.71    0.72</time>
   <time name="total">    0.71    0.72</time>
   <energy>
    <i name="e_fr_energy">    -11.01815563 </i>
    <i name="e_wo_entrp">    -11.01815446 </i>
    <i name="e_0_energy">    -11.01815505 </i>
   </energy>
  </scstep>
  <scstep>
   <time name="dav">    0.50    0.51</time>
   <time name="total">    0.52    0.53</time>
   <energy>
    <i name="e_fr_energy">    -11.01815578 </i>
    <i name="e_wo_entrp">    -11.01815461 </i>
    <i name="e_0_energy">    -11.01815520 </i>
   </energy>
  </scstep>
  <scstep>
   <time name="dav">    0.50    0.50</time>
   <time name="total">    0.54    0.55</time>
   <energy>
    <i name="e_fr_energy">    -10.89370723 </i>
    <i name="e_wo_entrp">    -10.89369950 </i>
    <i name="e_0_energy">    -10.89370337 </i>
   </energy>
  </scstep>
  <scstep>
   <time name="dav">    0.51    0.51</time>
   <time name="total">    0.55    0.56</time>
   <energy>
    <i name="e_fr_energy">    -10.83687171 </i>
    <i name="e_wo_entrp">    -10.83681109 </i>
    <i name="e_0_energy">    -10.83684140 </i>
   </energy>
  </scstep>
  <scstep>
   <time name="dav">    0.46    0.45</time>
   <time name="total">    0.50    0.51</time>
   <energy>
    <i name="e_fr_energy">    -10.83818041 </i>
    <i name="e_wo_entrp">    -10.83813291 </i>
    <i name="e_0_energy">    -10.83815666 </i>
   </energy>
  </scstep>
  <scstep>
   <time name="dav">    0.34    0.34</time>
   <time name="total">    0.37    0.38</time>
   <energy>
    <i name="alphaZ">      3.36414203 </i>
    <i name="ewald">   -228.56352493 </i>
    <i name="hartreedc">    -14.90385304 </i>
    <i name="XCdc">    -17.96001379 </i>
    <i name="pawpsdc">     74.50924898 </i>
    <i name="pawaedc">    -39.54847182 </i>
    <i name="eentropy">     -0.00004714 </i>
    <i name="bandstr">      6.13456123 </i>
    <i name="atom">    206.12968587 </i>
    <i name="e_fr_energy">    -10.83827261 </i>
    <i name="e_wo_entrp">    -10.83822547 </i>
    <i name="e_0_energy">    -10.83824904 </i>
   </energy>
  </scstep>
  <structure>
   <crystal>
    <varray name="basis" >
     <v>       0.00000000       2.71500000       2.71500000 </v>
     <v>       2.71500000       0.00000000       2.71500000 </v>
     <v>       2.71500000       2.71500000       0.00000000 </v>
    </varray>
    <i name="volume">     40.02575175 </i>
    <varray name="rec_basis" >
     <v>      -0.18416206       0.18416206       0.18416206 </v>
     <v>       0.18416206      -0.18416206       0.18416206 </v>
     <v>       0.18416206       0.18416206      -0.18416206 </v>
    </varray>
   </crystal>
   <varray name="positions" >
    <v>       0.50000000       0.50000000       0.50000000 </v>
    <v>       0.75000000       0.75000000       0.75000000 </v>
   </varray>
  </structure>
  <varray name="forces" >
   <v>       0.00000000       0.00000000       0.00000000 </v>
   <v>      -0.00000000      -0.00000000      -0.00000000 </v>
  </varray>
  <varray name="stress" >
   <v>      18.90819542       0.00000000      -0.00000000 </v>
   <v>       0.00000000      18.90819542       0.00000000 </v>
   <v>      -0.00000000       0.00000000      18.90819542 </v>
  </varray>
  <energy>
   <i name="e_fr_energy">    -10.83827261 </i>
   <i name="e_wo_entrp">    -10.83824904 </i>
   <i name="e_0_energy">     -0.00004714 </i>
  </energy>
  <time name="totalsc">    5.75    6.96</time>
  <eigenvalues>
   <array>
    <dimension dim="1">band</dimension>
    <dimension dim="2">kpoint</dimension>
    <dimension dim="3">spin</dimension>
    <field>eigene</field>
    <field>occ</field>
    <set>
     <set comment="spin 1">
      <set comment="kpoint 1">
       <r>   -6.0807    1.0000 </r>
       <r>    5.3003    1.0000 </r>
       <r>    5.7458    0.9970 </r>
       <r>    5.7458    0.9970 </r>
       <r>    8.4630    0.0000 </r>
       <r>    8.5235    0.0000 </r>
       <r>    8.5235    0.0000 </r>
       <r>    9.5841    0.0000 </r>
      </set>
      <set comment="kpoint 2">
       <r>   -5.8093    1.0000 </r>
       <r>    3.7922    1.0000 </r>
       <r>    4.9267    1.0000 </r>
       <r>    5.6292    0.9998 </r>
       <r>    8.5467    0.0000 </r>
       <r>    8.7703    0.0000 </r>
       <r>    9.0773    0.0000 </r>
       <r>   11.0084    0.0000 </r>
      </set>
      <set comment="kpoint 3">
       <r>   -5.1539    1.0000 </r>
       <r>    1.5439    1.0000 </r>
       <r>    4.4374    1.0000 </r>
       <r>    5.1625    1.0000 </r>
       <r>    8.1085    0.0000 </r>
       <r>    9.2589    0.0000 </r>
       <r>    9.5492    0.0000 </r>
       <r>   12.4806    0.0000 </r>
      </set>
      <set comment="kpoint 4">
       <r>   -4.2371    1.0000 </r>
       <r>   -0.3668    1.0000 </r>
       <r>    4.2219    1.0000 </r>
       <r>    4.7510    1.0000 </r>
       <r>    7.7940    0.0000 </r>
       <r>    9.3059    0.0000 </r>
       <r>    9.3191    0.0000 </r>
       <r>   13.6781    0.0000 </r>
      </set>
      <set comment="kpoint 5">
       <r>   -3.7784    1.0000 </r>
       <r>   -1.0801    1.0000 </r>
       <r>    4.2745    1.0000 </r>
       <r>    4.5293    1.0000 </r>
       <r>    7.7127    0.0000 </r>
       <r>    9.1059    0.0000 </r>
       <r>    9.3808    0.0000 </r>
       <r>   13.7282    0.0000 </r>
      </set>
      <set comment="kpoint 6">
       <r>   -4.5517    1.0000 </r>
       <r>    0.1991    1.0000 </r>
       <r>    4.5480    1.0000 </r>
       <r>    4.5649    1.0000 </r>
       <r>    7.8767    0.0000 </r>
       <r>    9.1225    0.0000 </r>
       <r>    9.6507    0.0000 </r>
       <r>   12.7926    0.0000 </r>
      </set>
      <set comment="kpoint 7">
       <r>   -5.4110    1.0000 </r>
       <r>    2.2816    1.0000 </r>
       <r>    4.8252    1.0000 </r>
       <r>    5.0333    1.0000 </r>
       <r>    8.2223    0.0000 </r>
       <r>    9.0114    0.0000 </r>
       <r>    9.7272    0.0000 </r>
       <r>   11.6191    0.0000 </r>
      </set>
      <set comment="kpoint 8">
       <r>   -5.9444    1.0000 </r>
       <r>    4.5514    1.0000 </r>
       <r>    5.3114    1.0000 </r>
       <r>    5.4794    1.0000 </r>
       <r>    8.2347    0.0000 </r>
       <r>    8.8526    0.0000 </r>
       <r>    9.1136    0.0000 </r>
       <r>   10.2927    0.0000 </r>
      </set>
      <set comment="kpoint 9">
       <r>   -5.6728    1.0000 </r>
       <r>    3.6610    1.0000 </r>
       <r>    4.7460    1.0000 </r>
       <r>    4.8382    1.0000 </r>
       <r>    7.8054    0.0000 </r>
       <r>    9.6327    0.0000 </r>
       <r>    9.9850    0.0000 </r>
       <r>   10.5290    0.0000 </r>
      </set>
      <set comment="kpoint 10">
       <r>   -5.1417    1.0000 </r>
       <r>    2.1479    1.0000 </r>
       <r>    3.7640    1.0000 </r>
       <r>    4.5755    1.0000 </r>
       <r>    7.9766    0.0000 </r>
       <r>    9.7514    0.0000 </r>
       <r>   10.2753    0.0000 </r>
       <r>   10.7878    0.0000 </r>
      </set>
      <set comment="kpoint 11">
       <r>   -4.2844    1.0000 </r>
       <r>    0.2621    1.0000 </r>
       <r>    3.2717    1.0000 </r>
       <r>    4.1565    1.0000 </r>
       <r>    8.1783    0.0000 </r>
       <r>    9.6353    0.0000 </r>
       <r>   10.8176    0.0000 </r>
       <r>   11.0516    0.0000 </r>
      </set>
      <set comment="kpoint 12">
       <r>   -3.5069    1.0000 </r>
       <r>   -0.9693    1.0000 </r>
       <r>    2.9820    1.0000 </r>
       <r>    4.0610    1.0000 </r>
       <r>    8.2594    0.0000 </r>
       <r>    9.3031    0.0000 </r>
       <r>   10.6491    0.0000 </r>
       <r>   13.1162    0.0000 </r>
      </set>
      <set comment="kpoint 13">
       <r>   -3.9751    1.0000 </r>
       <r>   -0.2659    1.0000 </r>
       <r>    2.9035    1.0000 </r>
       <r>    4.3515    1.0000 </r>
       <r>    8.5623    0.0000 </r>
       <r>    9.1982    0.0000 </r>
       <r>   10.5987    0.0000 </r>
       <r>   12.3505    0.0000 </r>
      </set>
      <set comment="kpoint 14">
       <r>   -4.8902    1.0000 </r>
       <r>    1.4890    1.0000 </r>
       <r>    3.1999    1.0000 </r>
       <r>    4.8684    1.0000 </r>
       <r>    8.8706    0.0000 </r>
       <r>    9.1697    0.0000 </r>
       <r>   10.4799    0.0000 </r>
       <r>   10.9301    0.0000 </r>
      </set>
      <set comment="kpoint 15">
       <r>   -5.5408    1.0000 </r>
       <r>    2.9737    1.0000 </r>
       <r>    4.3419    1.0000 </r>
       <r>    5.2475    1.0000 </r>
       <r>    8.3849    0.0000 </r>
       <r>    9.1073    0.0000 </r>
       <r>    9.7923    0.0000 </r>
       <r>   11.0414    0.0000 </r>
      </set>
      <set comment="kpoint 16">
       <r>   -4.7363    1.0000 </r>
       <r>    1.6536    1.0000 </r>
       <r>    3.6205    1.0000 </r>
       <r>    3.7440    1.0000 </r>
       <r>    6.9794    0.0000 </r>
       <r>    8.6423    0.0000 </r>
       <r>   11.8798    0.0000 </r>
       <r>   12.0135    0.0000 </r>
      </set>
      <set comment="kpoint 17">
       <r>   -3.9745    1.0000 </r>
       <r>    0.4034    1.0000 </r>
       <r>    2.8201    1.0000 </r>
       <r>    3.3910    1.0000 </r>
       <r>    7.2947    0.0000 </r>
       <r>    8.4788    0.0000 </r>
       <r>   11.8373    0.0000 </r>
       <r>   13.0202    0.0000 </r>
      </set>
      <set comment="kpoint 18">
       <r>   -3.0609    1.0000 </r>
       <r>   -0.8140    1.0000 </r>
       <r>    1.9669    1.0000 </r>
       <r>    3.3596    1.0000 </r>
       <r>    7.5285    0.0000 </r>
       <r>   10.1603    0.0000 </r>
       <r>   11.4062    0.0000 </r>
       <r>   12.9336    0.0000 </r>
      </set>
      <set comment="kpoint 19">
       <r>   -3.1319    1.0000 </r>
       <r>   -0.7198    1.0000 </r>
       <r>    1.6059    1.0000 </r>
       <r>    3.7099    1.0000 </r>
       <r>    7.9412    0.0000 </r>
       <r>   10.9183    0.0000 </r>
       <r>   12.2554    0.0000 </r>
       <r>   12.5018    0.0000 </r>
      </set>
      <set comment="kpoint 20">
       <r>   -4.0433    1.0000 </r>
       <r>    0.2387    1.0000 </r>
       <r>    2.2234    1.0000 </r>
       <r>    4.3058    1.0000 </r>
       <r>    8.5981    0.0000 </r>
       <r>    9.8037    0.0000 </r>
       <r>   11.2680    0.0000 </r>
       <r>   11.5136    0.0000 </r>
      </set>
      <set comment="kpoint 21">
       <r>   -4.7751    1.0000 </r>
       <r>    0.8663    1.0000 </r>
       <r>    3.8891    1.0000 </r>
       <r>    4.7686    1.0000 </r>
       <r>    8.3513    0.0000 </r>
       <r>    9.1656    0.0000 </r>
       <r>   10.0253    0.0000 </r>
       <r>   11.7149    0.0000 </r>
      </set>
      <set comment="kpoint 22">
       <r>   -3.3133    1.0000 </r>
       <r>   -0.4671    1.0000 </r>
       <r>    2.9213    1.0000 </r>
       <r>    3.1444    1.0000 </r>
       <r>    6.5726    0.0010 </r>
       <r>    7.2803    0.0000 </r>
       <r>   14.2017    0.0000 </r>
       <r>   14.2085    0.0000 </r>
      </set>
      <set comment="kpoint 23">
       <r>   -2.3902    1.0000 </r>
       <r>   -1.4678    1.0000 </r>
       <r>    2.3505    1.0000 </r>
       <r>    2.8946    1.0000 </r>
       <r>    7.0060    0.0000 </r>
       <r>    7.7455    0.0000 </r>
       <r>   13.9397    0.0000 </r>
       <r>   14.9986    0.0000 </r>
      </set>
      <set comment="kpoint 24">
       <r>   -2.4827    1.0000 </r>
       <r>   -1.3040    1.0000 </r>
       <r>    1.6053    1.0000 </r>
       <r>    3.2143    1.0000 </r>
       <r>    7.3775    0.0000 </r>
       <r>   10.0064    0.0000 </r>
       <r>   12.3925    0.0000 </r>
       <r>   13.5642    0.0000 </r>
      </set>
      <set comment="kpoint 25">
       <r>   -3.2482    1.0000 </r>
       <r>   -0.9131    1.0000 </r>
       <r>    2.1827    1.0000 </r>
       <r>    3.8252    1.0000 </r>
       <r>    8.0674    0.0000 </r>
       <r>   10.0614    0.0000 </r>
       <r>   11.6251    0.0000 </r>
       <r>   12.8674    0.0000 </r>
      </set>
      <set comment="kpoint 26">
       <r>   -3.8666    1.0000 </r>
       <r>   -0.7746    1.0000 </r>
       <r>    3.7175    1.0000 </r>
       <r>    4.4264    1.0000 </r>
       <r>    8.1591    0.0000 </r>
       <r>    9.0374    0.0000 </r>
       <r>    9.8359    0.0000 </r>
       <r>   13.4297    0.0000 </r>
      </set>
      <set comment="kpoint 27">
       <r>   -2.4437    1.0000 </r>
       <r>   -1.4866    1.0000 </r>
       <r>    2.7817    1.0000 </r>
       <r>    3.0219    1.0000 </r>
       <r>    6.5627    0.0012 </r>
       <r>    6.9270    0.0000 </r>
       <r>   15.2976    0.0000 </r>
       <r>   15.3830    0.0000 </r>
      </set>
      <set comment="kpoint 28">
       <r>   -3.2257    1.0000 </r>
       <r>   -0.5311    1.0000 </r>
       <r>    2.5113    1.0000 </r>
       <r>    3.0559    1.0000 </r>
       <r>    7.0986    0.0000 </r>
       <r>    7.9955    0.0000 </r>
       <r>   12.8580    0.0000 </r>
       <r>   14.2020    0.0000 </r>
      </set>
      <set comment="kpoint 29">
       <r>   -3.7005    1.0000 </r>
       <r>   -0.2856    1.0000 </r>
       <r>    2.5845    1.0000 </r>
       <r>    3.6645    1.0000 </r>
       <r>    7.8141    0.0000 </r>
       <r>   10.3433    0.0000 </r>
       <r>   10.6262    0.0000 </r>
       <r>   11.8405    0.0000 </r>
      </set>
      <set comment="kpoint 30">
       <r>   -4.0816    1.0000 </r>
       <r>    0.5902    1.0000 </r>
       <r>    3.2008    1.0000 </r>
       <r>    3.3869    1.0000 </r>
       <r>    6.7098    0.0000 </r>
       <r>    7.8617    0.0000 </r>
       <r>   13.0269    0.0000 </r>
       <r>   13.0912    0.0000 </r>
      </set>
      <set comment="kpoint 31">
       <r>   -4.6170    1.0000 </r>
       <r>    1.2986    1.0000 </r>
       <r>    3.2479    1.0000 </r>
       <r>    3.9105    1.0000 </r>
       <r>    7.5942    0.0000 </r>
       <r>    9.1705    0.0000 </r>
       <r>   10.8830    0.0000 </r>
       <r>   11.8727    0.0000 </r>
      </set>
      <set comment="kpoint 32">
       <r>   -5.2688    1.0000 </r>
       <r>    2.6877    1.0000 </r>
       <r>    4.1762    1.0000 </r>
       <r>    4.2048    1.0000 </r>
       <r>    7.3593    0.0000 </r>
       <r>    9.5433    0.0000 </r>
       <r>   10.8065    0.0000 </r>
       <r>   10.9716    0.0000 </r>
      </set>
      <set comment="kpoint 33">
       <r>   -5.6759    1.0000 </r>
       <r>    3.0576    1.0000 </r>
       <r>    5.2995    1.0000 </r>
       <r>    5.2995    1.0000 </r>
       <r>    8.1058    0.0000 </r>
       <r>    9.1474    0.0000 </r>
       <r>    9.1474    0.0000 </r>
       <r>   11.6664    0.0000 </r>
      </set>
      <set comment="kpoint 34">
       <r>   -5.2785    1.0000 </r>
       <r>    2.2203    1.0000 </r>
       <r>    3.7609    1.0000 </r>
       <r>    5.3224    1.0000 </r>
       <r>    8.7607    0.0000 </r>
       <r>    9.2692    0.0000 </r>
       <r>    9.5701    0.0000 </r>
       <r>   11.6325    0.0000 </r>
      </set>
      <set comment="kpoint 35">
       <r>   -4.5205    1.0000 </r>
       <r>    0.8425    1.0000 </r>
       <r>    2.6634    1.0000 </r>
       <r>    4.8096    1.0000 </r>
       <r>    8.5719    0.0000 </r>
       <r>   10.0319    0.0000 </r>
       <r>   10.2486    0.0000 </r>
       <r>   11.9177    0.0000 </r>
      </set>
      <set comment="kpoint 36">
       <r>   -3.6091    1.0000 </r>
       <r>   -0.6743    1.0000 </r>
       <r>    2.5181    1.0000 </r>
       <r>    4.2692    1.0000 </r>
       <r>    8.0459    0.0000 </r>
       <r>   10.2353    0.0000 </r>
       <r>   10.4100    0.0000 </r>
       <r>   13.7770    0.0000 </r>
      </set>
      <set comment="kpoint 37">
       <r>   -3.5937    1.0000 </r>
       <r>   -0.7026    1.0000 </r>
       <r>    2.8253    1.0000 </r>
       <r>    3.9451    1.0000 </r>
       <r>    7.7540    0.0000 </r>
       <r>   10.3159    0.0000 </r>
       <r>   10.7577    0.0000 </r>
       <r>   11.7744    0.0000 </r>
      </set>
      <set comment="kpoint 38">
       <r>   -4.5039    1.0000 </r>
       <r>    0.8385    1.0000 </r>
       <r>    3.4449    1.0000 </r>
       <r>    3.9188    1.0000 </r>
       <r>    7.6833    0.0000 </r>
       <r>    9.9056    0.0000 </r>
       <r>   10.5933    0.0000 </r>
       <r>   11.1502    0.0000 </r>
      </set>
      <set comment="kpoint 39">
       <r>   -5.0182    1.0000 </r>
       <r>    1.5443    1.0000 </r>
       <r>    4.2888    1.0000 </r>
       <r>    4.3431    1.0000 </r>
       <r>    8.0986    0.0000 </r>
       <r>    9.5330    0.0000 </r>
       <r>   10.4027    0.0000 </r>
       <r>   10.7385    0.0000 </r>
      </set>
      <set comment="kpoint 40">
       <r>   -4.3828    1.0000 </r>
       <r>    0.7815    1.0000 </r>
       <r>    2.7209    1.0000 </r>
       <r>    4.1461    1.0000 </r>
       <r>    8.5849    0.0000 </r>
       <r>    9.6688    0.0000 </r>
       <r>   10.1125    0.0000 </r>
       <r>   11.6863    0.0000 </r>
      </set>
      <set comment="kpoint 41">
       <r>   -3.4769    1.0000 </r>
       <r>   -0.3286    1.0000 </r>
       <r>    1.9160    1.0000 </r>
       <r>    3.5647    1.0000 </r>
       <r>    9.0398    0.0000 </r>
       <r>    9.5333    0.0000 </r>
       <r>   10.8314    0.0000 </r>
       <r>   12.7899    0.0000 </r>
      </set>
      <set comment="kpoint 42">
       <r>   -2.9788    1.0000 </r>
       <r>   -0.9559    1.0000 </r>
       <r>    1.9244    1.0000 </r>
       <r>    3.2447    1.0000 </r>
       <r>    8.5573    0.0000 </r>
       <r>    9.8668    0.0000 </r>
       <r>   11.6194    0.0000 </r>
       <r>   12.9625    0.0000 </r>
      </set>
      <set comment="kpoint 43">
       <r>   -3.7675    1.0000 </r>
       <r>    0.0710    1.0000 </r>
       <r>    2.3498    1.0000 </r>
       <r>    3.4281    1.0000 </r>
       <r>    8.2879    0.0000 </r>
       <r>    9.4982    0.0000 </r>
       <r>   10.4332    0.0000 </r>
       <r>   12.9292    0.0000 </r>
      </set>
      <set comment="kpoint 44">
       <r>   -3.8789    1.0000 </r>
       <r>    0.1243    1.0000 </r>
       <r>    2.6932    1.0000 </r>
       <r>    3.5838    1.0000 </r>
       <r>    7.2887    0.0000 </r>
       <r>    9.3379    0.0000 </r>
       <r>   11.7070    0.0000 </r>
       <r>   11.9794    0.0000 </r>
      </set>
      <set comment="kpoint 45">
       <r>   -3.0627    1.0000 </r>
       <r>   -0.6735    1.0000 </r>
       <r>    2.0989    1.0000 </r>
       <r>    2.8799    1.0000 </r>
       <r>    8.0755    0.0000 </r>
       <r>    9.0934    0.0000 </r>
       <r>   11.3266    0.0000 </r>
       <r>   14.1833    0.0000 </r>
      </set>
      <set comment="kpoint 46">
       <r>   -2.2399    1.0000 </r>
       <r>   -1.4357    1.0000 </r>
       <r>    1.7701    1.0000 </r>
       <r>    2.3671    1.0000 </r>
       <r>    9.2062    0.0000 </r>
       <r>   10.1302    0.0000 </r>
       <r>   10.8839    0.0000 </r>
       <r>   11.8832    0.0000 </r>
      </set>
      <set comment="kpoint 47">
       <r>   -2.8521    1.0000 </r>
       <r>   -0.8854    1.0000 </r>
       <r>    1.7662    1.0000 </r>
       <r>    2.8523    1.0000 </r>
       <r>    9.3015    0.0000 </r>
       <r>    9.7436    0.0000 </r>
       <r>   10.5438    0.0000 </r>
       <r>   13.0511    0.0000 </r>
      </set>
      <set comment="kpoint 48">
       <r>   -2.4081    1.0000 </r>
       <r>   -1.4186    1.0000 </r>
       <r>    1.8777    1.0000 </r>
       <r>    3.2373    1.0000 </r>
       <r>    6.8434    0.0000 </r>
       <r>    8.7756    0.0000 </r>
       <r>   13.8416    0.0000 </r>
       <r>   14.0868    0.0000 </r>
      </set>
      <set comment="kpoint 49">
       <r>   -2.3065    1.0000 </r>
       <r>   -1.4458    1.0000 </r>
       <r>    1.9733    1.0000 </r>
       <r>    2.5896    1.0000 </r>
       <r>    7.9660    0.0000 </r>
       <r>    8.8919    0.0000 </r>
       <r>   12.3355    0.0000 </r>
       <r>   13.4612    0.0000 </r>
      </set>
      <set comment="kpoint 50">
       <r>   -3.1620    1.0000 </r>
       <r>   -0.6382    1.0000 </r>
       <r>    2.1521    1.0000 </r>
       <r>    3.3539    1.0000 </r>
       <r>    6.9967    0.0000 </r>
       <r>    8.9605    0.0000 </r>
       <r>   12.8816    0.0000 </r>
       <r>   12.8956    0.0000 </r>
      </set>
      <set comment="kpoint 51">
       <r>   -4.9086    1.0000 </r>
       <r>    0.8296    1.0000 </r>
       <r>    4.8826    1.0000 </r>
       <r>    4.8826    1.0000 </r>
       <r>    7.6573    0.0000 </r>
       <r>    9.3642    0.0000 </r>
       <r>    9.3642    0.0000 </r>
       <r>   13.5873    0.0000 </r>
      </set>
      <set comment="kpoint 52">
       <r>   -4.4215    1.0000 </r>
       <r>    0.2506    1.0000 </r>
       <r>    3.3987    1.0000 </r>
       <r>    4.7954    1.0000 </r>
       <r>    8.3594    0.0000 </r>
       <r>    9.5945    0.0000 </r>
       <r>    9.6360    0.0000 </r>
       <r>   12.9284    0.0000 </r>
      </set>
      <set comment="kpoint 53">
       <r>   -3.6163    1.0000 </r>
       <r>   -0.2686    1.0000 </r>
       <r>    1.8351    1.0000 </r>
       <r>    4.2036    1.0000 </r>
       <r>    7.9597    0.0000 </r>
       <r>   11.0654    0.0000 </r>
       <r>   11.2527    0.0000 </r>
       <r>   12.7032    0.0000 </r>
      </set>
      <set comment="kpoint 54">
       <r>   -2.7797    1.0000 </r>
       <r>   -1.0540    1.0000 </r>
       <r>    1.4854    1.0000 </r>
       <r>    3.6475    1.0000 </r>
       <r>    7.3219    0.0000 </r>
       <r>   11.2501    0.0000 </r>
       <r>   12.3542    0.0000 </r>
       <r>   12.6806    0.0000 </r>
      </set>
      <set comment="kpoint 55">
       <r>   -4.1012    1.0000 </r>
       <r>   -0.3167    1.0000 </r>
       <r>    3.7468    1.0000 </r>
       <r>    4.2207    1.0000 </r>
       <r>    8.0365    0.0000 </r>
       <r>    9.3973    0.0000 </r>
       <r>   10.1213    0.0000 </r>
       <r>   12.1909    0.0000 </r>
      </set>
      <set comment="kpoint 56">
       <r>   -3.4706    1.0000 </r>
       <r>   -0.6696    1.0000 </r>
       <r>    2.4103    1.0000 </r>
       <r>    3.7328    1.0000 </r>
       <r>    8.7989    0.0000 </r>
       <r>    9.1361    0.0000 </r>
       <r>   11.7462    0.0000 </r>
       <r>   11.9180    0.0000 </r>
      </set>
      <set comment="kpoint 57">
       <r>   -2.6402    1.0000 </r>
       <r>   -1.1158    1.0000 </r>
       <r>    1.5786    1.0000 </r>
       <r>    3.0049    1.0000 </r>
       <r>    8.4249    0.0000 </r>
       <r>   10.6931    0.0000 </r>
       <r>   11.5174    0.0000 </r>
       <r>   12.0641    0.0000 </r>
      </set>
      <set comment="kpoint 58">
       <r>   -3.1051    1.0000 </r>
       <r>   -0.9479    1.0000 </r>
       <r>    2.0045    1.0000 </r>
       <r>    3.7489    1.0000 </r>
       <r>    7.4749    0.0000 </r>
       <r>   11.2098    0.0000 </r>
       <r>   11.5360    0.0000 </r>
       <r>   11.7082    0.0000 </r>
      </set>
      <set comment="kpoint 59">
       <r>   -4.0013    1.0000 </r>
       <r>   -0.8405    1.0000 </r>
       <r>    4.6607    1.0000 </r>
       <r>    4.6607    1.0000 </r>
       <r>    7.4054    0.0000 </r>
       <r>    9.2093    0.0000 </r>
       <r>    9.2093    0.0000 </r>
       <r>   13.6059    0.0000 </r>
      </set>
      <set comment="kpoint 60">
       <r>   -3.6435    1.0000 </r>
       <r>   -1.0154    1.0000 </r>
       <r>    3.4238    1.0000 </r>
       <r>    4.3867    1.0000 </r>
       <r>    8.0831    0.0000 </r>
       <r>    9.3710    0.0000 </r>
       <r>    9.7986    0.0000 </r>
       <r>   14.0481    0.0000 </r>
      </set>
     </set>
    </set>
   </array>
  </eigenvalues>
  <separator name="orbital magnetization" >
   <v name="MAGDIPOLOUT">      0.00000000      0.00000000      0.00000000</v>
  </separator>
  <dos>
   <i name="efermi">      6.13393340 </i>
   <total>
    <array>
     <dimension dim="1">gridpoints</dimension>
     <dimension dim="2">spin</dimension>
     <field>energy</field>
     <field>total</field>
     <field>integrated</field>
     <set>
      <set comment="spin 1">
       <r>    -8.0807     0.0000     0.0000 </r>
       <r>    -7.9959     0.0000     0.0000 </r>
       <r>    -7.9110     0.0000     0.0000 </r>
       <r>    -7.8261     0.0000     0.0000 </r>
       <r>    -7.7412     0.0000     0.0000 </r>
       <r>    -7.6563     0.0000     0.0000 </r>
       <r>    -7.5715     0.0000     0.0000 </r>
       <r>    -7.4866     0.0000     0.0000 </r>
       <r>    -7.4017     0.0000     0.0000 </r>
       <r>    -7.3168     0.0000     0.0000 </r>
       <r>    -7.2319     0.0000     0.0000 </r>
       <r>    -7.1471     0.0000     0.0000 </r>
       <r>    -7.0622     0.0000     0.0000 </r>
       <r>    -6.9773     0.0000     0.0000 </r>
       <r>    -6.8924     0.0000     0.0000 </r>
       <r>    -6.8075     0.0000     0.0000 </r>
       <r>    -6.7227     0.0000     0.0000 </r>
       <r>    -6.6378     0.0000     0.0000 </r>
       <r>    -6.5529     0.0000     0.0000 </r>
       <r>    -6.4680     0.0003     0.0000 </r>
       <r>    -6.3831     0.0015     0.0001 </r>
       <r>    -6.2983     0.0057     0.0006 </r>
       <r>    -6.2134     0.0170     0.0021 </r>
       <r>    -6.1285     0.0395     0.0054 </r>
       <r>    -6.0436     0.0734     0.0117 </r>
       <r>    -5.9587     0.1127     0.0212 </r>
       <r>    -5.8739     0.1497     0.0339 </r>
       <r>    -5.7890     0.1822     0.0494 </r>
       <r>    -5.7041     0.2136     0.0675 </r>
       <r>    -5.6192     0.2439     0.0882 </r>
       <r>    -5.5344     0.2651     0.1107 </r>
       <r>    -5.4495     0.2757     0.1341 </r>
       <r>    -5.3646     0.2902     0.1588 </r>
       <r>    -5.2797     0.3228     0.1862 </r>
       <r>    -5.1948     0.3614     0.2168 </r>
       <r>    -5.1100     0.3795     0.2491 </r>
       <r>    -5.0251     0.3751     0.2809 </r>
       <r>    -4.9402     0.3753     0.3128 </r>
       <r>    -4.8553     0.3978     0.3465 </r>
       <r>    -4.7704     0.4315     0.3831 </r>
       <r>    -4.6856     0.4631     0.4225 </r>
       <r>    -4.6007     0.4935     0.4643 </r>
       <r>    -4.5158     0.5212     0.5086 </r>
       <r>    -4.4309     0.5345     0.5540 </r>
       <r>    -4.3460     0.5266     0.5987 </r>
       <r>    -4.2612     0.5119     0.6421 </r>
       <r>    -4.1763     0.5275     0.6869 </r>
       <r>    -4.0914     0.6014     0.7379 </r>
       <r>    -4.0065     0.7070     0.7979 </r>
       <r>    -3.9216     0.7816     0.8643 </r>
       <r>    -3.8368     0.8017     0.9323 </r>
       <r>    -3.7519     0.7988     1.0001 </r>
       <r>    -3.6670     0.8028     1.0683 </r>
       <r>    -3.5821     0.8061     1.1367 </r>
       <r>    -3.4973     0.7797     1.2029 </r>
       <r>    -3.4124     0.7217     1.2641 </r>
       <r>    -3.3275     0.6848     1.3223 </r>
       <r>    -3.2426     0.7217     1.3835 </r>
       <r>    -3.1577     0.8022     1.4516 </r>
       <r>    -3.0729     0.8335     1.5224 </r>
       <r>    -2.9880     0.7604     1.5869 </r>
       <r>    -2.9031     0.6163     1.6392 </r>
       <r>    -2.8182     0.4756     1.6796 </r>
       <r>    -2.7333     0.3867     1.7124 </r>
       <r>    -2.6485     0.3635     1.7433 </r>
       <r>    -2.5636     0.4059     1.7777 </r>
       <r>    -2.4787     0.4928     1.8195 </r>
       <r>    -2.3938     0.5673     1.8677 </r>
       <r>    -2.3089     0.5633     1.9155 </r>
       <r>    -2.2241     0.4602     1.9546 </r>
       <r>    -2.1392     0.3009     1.9801 </r>
       <r>    -2.0543     0.1535     1.9931 </r>
       <r>    -1.9694     0.0598     1.9982 </r>
       <r>    -1.8845     0.0195     1.9999 </r>
       <r>    -1.7997     0.0172     2.0013 </r>
       <r>    -1.7148     0.0565     2.0061 </r>
       <r>    -1.6299     0.1650     2.0201 </r>
       <r>    -1.5450     0.3495     2.0498 </r>
       <r>    -1.4601     0.5388     2.0955 </r>
       <r>    -1.3753     0.6227     2.1484 </r>
       <r>    -1.2904     0.5842     2.1980 </r>
       <r>    -1.2055     0.5373     2.2436 </r>
       <r>    -1.1206     0.6011     2.2946 </r>
       <r>    -1.0358     0.7809     2.3609 </r>
       <r>    -0.9509     0.9838     2.4444 </r>
       <r>    -0.8660     1.1203     2.5395 </r>
       <r>    -0.7811     1.1643     2.6383 </r>
       <r>    -0.6962     1.1195     2.7333 </r>
       <r>    -0.6114     0.9888     2.8172 </r>
       <r>    -0.5265     0.8217     2.8870 </r>
       <r>    -0.4416     0.7143     2.9476 </r>
       <r>    -0.3567     0.6962     3.0067 </r>
       <r>    -0.2718     0.6763     3.0641 </r>
       <r>    -0.1870     0.5628     3.1119 </r>
       <r>    -0.1021     0.3991     3.1458 </r>
       <r>    -0.0172     0.3110     3.1722 </r>
       <r>     0.0677     0.3551     3.2023 </r>
       <r>     0.1526     0.4739     3.2425 </r>
       <r>     0.2374     0.5629     3.2903 </r>
       <r>     0.3223     0.5520     3.3372 </r>
       <r>     0.4072     0.4500     3.3753 </r>
       <r>     0.4921     0.3266     3.4031 </r>
       <r>     0.5770     0.2533     3.4246 </r>
       <r>     0.6618     0.2649     3.4471 </r>
       <r>     0.7467     0.3439     3.4762 </r>
       <r>     0.8316     0.4149     3.5115 </r>
       <r>     0.9165     0.3949     3.5450 </r>
       <r>     1.0014     0.2843     3.5691 </r>
       <r>     1.0862     0.1697     3.5835 </r>
       <r>     1.1711     0.1287     3.5944 </r>
       <r>     1.2560     0.1756     3.6093 </r>
       <r>     1.3409     0.2950     3.6344 </r>
       <r>     1.4257     0.4787     3.6750 </r>
       <r>     1.5106     0.6972     3.7342 </r>
       <r>     1.5955     0.8698     3.8080 </r>
       <r>     1.6804     0.9382     3.8876 </r>
       <r>     1.7653     0.9461     3.9680 </r>
       <r>     1.8501     0.9736     4.0506 </r>
       <r>     1.9350     1.0275     4.1378 </r>
       <r>     2.0199     1.0643     4.2281 </r>
       <r>     2.1048     1.0770     4.3195 </r>
       <r>     2.1897     1.0898     4.4121 </r>
       <r>     2.2745     1.1004     4.5055 </r>
       <r>     2.3594     1.0855     4.5976 </r>
       <r>     2.4443     1.0430     4.6861 </r>
       <r>     2.5292     1.0039     4.7713 </r>
       <r>     2.6141     1.0086     4.8569 </r>
       <r>     2.6989     1.0834     4.9489 </r>
       <r>     2.7838     1.2286     5.0532 </r>
       <r>     2.8687     1.3913     5.1713 </r>
       <r>     2.9536     1.4760     5.2965 </r>
       <r>     3.0385     1.4481     5.4195 </r>
       <r>     3.1233     1.3935     5.5377 </r>
       <r>     3.2082     1.4039     5.6569 </r>
       <r>     3.2931     1.4461     5.7797 </r>
       <r>     3.3780     1.4234     5.9005 </r>
       <r>     3.4628     1.3309     6.0134 </r>
       <r>     3.5477     1.2842     6.1224 </r>
       <r>     3.6326     1.3766     6.2393 </r>
       <r>     3.7175     1.5296     6.3691 </r>
       <r>     3.8024     1.5565     6.5012 </r>
       <r>     3.8872     1.3858     6.6189 </r>
       <r>     3.9721     1.1444     6.7160 </r>
       <r>     4.0570     1.0191     6.8025 </r>
       <r>     4.1419     1.0835     6.8945 </r>
       <r>     4.2268     1.2483     7.0004 </r>
       <r>     4.3116     1.3545     7.1154 </r>
       <r>     4.3965     1.3130     7.2268 </r>
       <r>     4.4814     1.1588     7.3252 </r>
       <r>     4.5663     0.9924     7.4094 </r>
       <r>     4.6512     0.8937     7.4853 </r>
       <r>     4.7360     0.8758     7.5596 </r>
       <r>     4.8209     0.8701     7.6335 </r>
       <r>     4.9058     0.7828     7.6999 </r>
       <r>     4.9907     0.6109     7.7518 </r>
       <r>     5.0756     0.4539     7.7903 </r>
       <r>     5.1604     0.3939     7.8237 </r>
       <r>     5.2453     0.4091     7.8585 </r>
       <r>     5.3302     0.4135     7.8936 </r>
       <r>     5.4151     0.3586     7.9240 </r>
       <r>     5.5000     0.2718     7.9471 </r>
       <r>     5.5848     0.2008     7.9641 </r>
       <r>     5.6697     0.1561     7.9774 </r>
       <r>     5.7546     0.1196     7.9875 </r>
       <r>     5.8395     0.0800     7.9943 </r>
       <r>     5.9243     0.0429     7.9979 </r>
       <r>     6.0092     0.0176     7.9994 </r>
       <r>     6.0941     0.0056     7.9999 </r>
       <r>     6.1790     0.0027     8.0001 </r>
       <r>     6.2639     0.0075     8.0008 </r>
       <r>     6.3487     0.0262     8.0030 </r>
       <r>     6.4336     0.0673     8.0087 </r>
       <r>     6.5185     0.1269     8.0195 </r>
       <r>     6.6034     0.1828     8.0350 </r>
       <r>     6.6883     0.2202     8.0537 </r>
       <r>     6.7731     0.2582     8.0756 </r>
       <r>     6.8580     0.3285     8.1035 </r>
       <r>     6.9429     0.4263     8.1397 </r>
       <r>     7.0278     0.5042     8.1825 </r>
       <r>     7.1127     0.5379     8.2281 </r>
       <r>     7.1975     0.5680     8.2763 </r>
       <r>     7.2824     0.6327     8.3300 </r>
       <r>     7.3673     0.6975     8.3892 </r>
       <r>     7.4522     0.7144     8.4499 </r>
       <r>     7.5371     0.7083     8.5100 </r>
       <r>     7.6219     0.7465     8.5734 </r>
       <r>     7.7068     0.8617     8.6465 </r>
       <r>     7.7917     1.0373     8.7345 </r>
       <r>     7.8766     1.2423     8.8400 </r>
       <r>     7.9615     1.4423     8.9624 </r>
       <r>     8.0463     1.5769     9.0963 </r>
       <r>     8.1312     1.5886     9.2311 </r>
       <r>     8.2161     1.4952     9.3580 </r>
       <r>     8.3010     1.3831     9.4754 </r>
       <r>     8.3858     1.3238     9.5878 </r>
       <r>     8.4707     1.3195     9.6998 </r>
       <r>     8.5556     1.3077     9.8108 </r>
       <r>     8.6405     1.2284     9.9150 </r>
       <r>     8.7254     1.1116    10.0094 </r>
       <r>     8.8102     1.0551    10.0989 </r>
       <r>     8.8951     1.1298    10.1948 </r>
       <r>     8.9800     1.3608    10.3103 </r>
       <r>     9.0649     1.7088    10.4554 </r>
       <r>     9.1498     2.0144    10.6264 </r>
       <r>     9.2346     2.0875    10.8035 </r>
       <r>     9.3195     1.9032    10.9651 </r>
       <r>     9.4044     1.6306    11.1035 </r>
       <r>     9.4893     1.4655    11.2279 </r>
       <r>     9.5742     1.4668    11.3524 </r>
       <r>     9.6590     1.5445    11.4835 </r>
       <r>     9.7439     1.5769    11.6173 </r>
       <r>     9.8288     1.5138    11.7458 </r>
       <r>     9.9137     1.3996    11.8646 </r>
       <r>     9.9986     1.3185    11.9765 </r>
       <r>    10.0834     1.2927    12.0862 </r>
       <r>    10.1683     1.2691    12.1939 </r>
       <r>    10.2532     1.2165    12.2972 </r>
       <r>    10.3381     1.1642    12.3960 </r>
       <r>    10.4229     1.1490    12.4935 </r>
       <r>    10.5078     1.1812    12.5938 </r>
       <r>    10.5927     1.2486    12.6998 </r>
       <r>    10.6776     1.3326    12.8129 </r>
       <r>    10.7625     1.4181    12.9333 </r>
       <r>    10.8473     1.4717    13.0582 </r>
       <r>    10.9322     1.4344    13.1799 </r>
       <r>    11.0171     1.2832    13.2888 </r>
       <r>    11.1020     1.0776    13.3803 </r>
       <r>    11.1869     0.9102    13.4576 </r>
       <r>    11.2717     0.8249    13.5276 </r>
       <r>    11.3566     0.8126    13.5966 </r>
       <r>    11.4415     0.8736    13.6707 </r>
       <r>    11.5264     1.0263    13.7578 </r>
       <r>    11.6113     1.2423    13.8633 </r>
       <r>    11.6961     1.4342    13.9850 </r>
       <r>    11.7810     1.5209    14.1141 </r>
       <r>    11.8659     1.4645    14.2384 </r>
       <r>    11.9508     1.2656    14.3458 </r>
       <r>    12.0357     0.9851    14.4294 </r>
       <r>    12.1205     0.7469    14.4928 </r>
       <r>    12.2054     0.6528    14.5482 </r>
       <r>    12.2903     0.6904    14.6068 </r>
       <r>    12.3752     0.7441    14.6700 </r>
       <r>    12.4601     0.7113    14.7304 </r>
       <r>    12.5449     0.6083    14.7820 </r>
       <r>    12.6298     0.5528    14.8289 </r>
       <r>    12.7147     0.6520    14.8843 </r>
       <r>    12.7996     0.9045    14.9610 </r>
       <r>    12.8844     1.1823    15.0614 </r>
       <r>    12.9693     1.3095    15.1725 </r>
       <r>    13.0542     1.1930    15.2738 </r>
       <r>    13.1391     0.8925    15.3496 </r>
       <r>    13.2240     0.5714    15.3981 </r>
       <r>    13.3088     0.3796    15.4303 </r>
       <r>    13.3937     0.3557    15.4605 </r>
       <r>    13.4786     0.4211    15.4962 </r>
       <r>    13.5635     0.4719    15.5363 </r>
       <r>    13.6484     0.4697    15.5761 </r>
       <r>    13.7332     0.4384    15.6133 </r>
       <r>    13.8181     0.4102    15.6482 </r>
       <r>    13.9030     0.4027    15.6824 </r>
       <r>    13.9879     0.4274    15.7186 </r>
       <r>    14.0728     0.4840    15.7597 </r>
       <r>    14.1576     0.5331    15.8050 </r>
       <r>    14.2425     0.5040    15.8477 </r>
       <r>    14.3274     0.3730    15.8794 </r>
       <r>    14.4123     0.2054    15.8968 </r>
       <r>    14.4972     0.0821    15.9038 </r>
       <r>    14.5820     0.0242    15.9059 </r>
       <r>    14.6669     0.0091    15.9066 </r>
       <r>    14.7518     0.0178    15.9081 </r>
       <r>    14.8367     0.0475    15.9122 </r>
       <r>    14.9216     0.0932    15.9201 </r>
       <r>    15.0064     0.1318    15.9313 </r>
       <r>    15.0913     0.1414    15.9433 </r>
       <r>    15.1762     0.1320    15.9545 </r>
       <r>    15.2611     0.1300    15.9655 </r>
       <r>    15.3459     0.1346    15.9769 </r>
       <r>    15.4308     0.1217    15.9873 </r>
       <r>    15.5157     0.0848    15.9945 </r>
       <r>    15.6006     0.0436    15.9982 </r>
       <r>    15.6855     0.0162    15.9995 </r>
       <r>    15.7703     0.0044    15.9999 </r>
       <r>    15.8552     0.0008    16.0000 </r>
       <r>    15.9401     0.0001    16.0000 </r>
       <r>    16.0250     0.0000    16.0000 </r>
       <r>    16.1099     0.0000    16.0000 </r>
       <r>    16.1947     0.0000    16.0000 </r>
       <r>    16.2796     0.0000    16.0000 </r>
       <r>    16.3645     0.0000    16.0000 </r>
       <r>    16.4494     0.0000    16.0000 </r>
       <r>    16.5343     0.0000    16.0000 </r>
       <r>    16.6191     0.0000    16.0000 </r>
       <r>    16.7040     0.0000    16.0000 </r>
       <r>    16.7889     0.0000    16.0000 </r>
       <r>    16.8738     0.0000    16.0000 </r>
       <r>    16.9587     0.0000    16.0000 </r>
       <r>    17.0435     0.0000    16.0000 </r>
       <r>    17.1284     0.0000    16.0000 </r>
       <r>    17.2133     0.0000    16.0000 </r>
       <r>    17.2982     0.0000    16.0000 </r>
       <r>    17.3830     0.0000    16.0000 </r>
      </set>
     </set>
    </array>
   </total>
  </dos>
 </calculation>
 <structure name="finalpos" >
  <crystal>
   <varray name="basis" >
    <v>       0.00000000       2.71500000       2.71500000 </v>
    <v>       2.71500000       0.00000000       2.71500000 </v>
    <v>       2.71500000       2.71500000       0.00000000 </v>
   </varray>
   <i name="volume">     40.02575175 </i>
   <varray name="rec_basis" >
    <v>      -0.18416206       0.18416206       0.18416206 </v>
    <v>       0.18416206      -0.18416206       0.18416206 </v>
    <v>       0.18416206       0.18416206      -0.18416206 </v>
   </varray>
  </crystal>
  <varray name="positions" >
   <v>       0.50000000       0.50000000       0.50000000 </v>
   <v>       0.75000000       0.75000000       0.75000000 </v>
  </varray>
 </structure>
</modeling>
