unknown system                          
   1.00000000000000     
    -2.450000    2.450000    1.274000
     2.450000   -2.450000    1.274000
     2.450000    2.450000   -1.274000
   Si
     2
Direct
  0.250000  0.750000  0.500000
  0.000000  0.000000  0.000000
 
   24   24   24
 -5.5659     -3.5445      1.4885      7.0909      10.890      11.864      10.611      8.5795      6.6989      5.2428    
  4.2685      3.7274      3.5560      3.7275      4.2685      5.2428      6.6989      8.5795      10.610      11.864    
  10.890      7.0911      1.4885     -3.5447     -3.5447     -4.5805     -1.7889      3.3947      8.4808      11.416    
  11.631      10.026      8.0021      6.2323      4.9147      4.0686      3.6348      3.5560      3.8187      4.4608    
  5.5480      7.1132      9.0606      11.039      11.947      10.447      6.2743     0.79233      1.4885     -1.7891    
 -1.8621      1.2942      6.0229      10.040      11.791      11.189      9.3276      7.3732      5.7500      4.5886    
  3.8754      3.5469      3.5559      3.9018      4.6307      5.8053      7.4399      9.4061      11.295      11.961    
  10.274      6.2743      7.0911      3.3946      1.2941      1.9487      4.9818      8.7352      11.341      11.830    
  10.533      8.5744      6.7385      5.2862      4.2862      3.7012      3.4695      3.5558      3.9707      4.7640    
  5.9916      7.6491      9.5867      11.379      11.961      10.447      10.890      8.4810      6.0229      4.9817    
  6.0044      8.4755      10.941      12.073      11.467      9.7373      7.8185      6.1411      4.8702      4.0254    
  3.5561      3.4073      3.5557      4.0199      4.8492      6.0894      7.7212      9.5867      11.295      11.947    
  11.864      11.416      10.040      8.7352      8.4755      9.5002      11.133      12.266      12.132      10.781    
  8.9168      7.1133      5.6185      4.5252      3.8195      3.4474      3.3638      3.5557      4.0455      4.8785    
  6.0894      7.6491      9.4061      11.039      10.610      11.631      11.791      11.341      10.941      11.133    
  11.892      12.630      12.641      11.640      9.9616      8.1494      6.5083      5.2009      4.2679      3.6777    
  3.3803      3.3414      3.5556      4.0455      4.8492      5.9916      7.4399      9.0606      8.5795      10.026    
  11.189      11.830      12.073      12.266      12.630      13.018      13.013      12.281      10.879      9.1857    
  7.5039      6.0451      4.9106      4.1094      3.6055      3.3576      3.3414      3.5557      4.0199      4.7640    
  5.8053      7.1132      6.6989      8.0022      9.3277      10.533      11.467      12.132      12.641      13.013    
  13.083      12.624      11.579      10.141      8.5523      7.0388      5.7548      4.7620      4.0559      3.6055    
  3.3803      3.3638      3.5557      3.9707      4.6307      5.5480      5.2428      6.2323      7.3733      8.5744    
  9.7373      10.781      11.640      12.281      12.624      12.540      11.951      10.911      9.5720      8.1390    
  6.7955      5.6559      4.7620      4.1094      3.6777      3.4474      3.4073      3.5558      3.9018      4.4608    
  4.2685      4.9147      5.7499      6.7385      7.8186      8.9168      9.9616      10.879      11.579      11.951    
  11.895      11.374      10.448      9.2631      7.9955      6.7955      5.7548      4.9106      4.2679      3.8195    
  3.5561      3.4695      3.5559      3.8187      3.7275      4.0687      4.5885      5.2861      6.1411      7.1134    
  8.1495      9.1857      10.141      10.911      11.374      11.431      11.049      10.283      9.2631      8.1390    
  7.0388      6.0451      5.2009      4.5252      4.0254      3.7012      3.5469      3.5560      3.5560      3.6348    
  3.8755      4.2861      4.8701      5.6184      6.5083      7.5040      8.5523      9.5719      10.448      11.049    
  11.263      11.049      10.448      9.5720      8.5523      7.5039      6.5083      5.6185      4.8702      4.2862    
  3.8754      3.6348      3.7274      3.5559      3.5470      3.7013      4.0254      4.5251      5.2008      6.0452    
  7.0389      8.1390      9.2630      10.283      11.049      11.431      11.374      10.911      10.141      9.1857    
  8.1494      7.1133      6.1411      5.2862      4.5886      4.0686      4.2685      3.8186      3.5558      3.4695    
  3.5562      3.8195      4.2678      4.9105      5.7548      6.7956      7.9955      9.2630      10.448      11.374    
  11.895      11.951      11.579      10.879      9.9616      8.9168      7.8185      6.7385      5.7500      4.9147    
  5.2428      4.4608      3.9018      3.5557      3.4073      3.4475      3.6777      4.1094      4.7619      5.6560    
  6.7956      8.1390      9.5719      10.911      11.951      12.540      12.624      12.281      11.640      10.781    
  9.7373      8.5744      7.3732      6.2323      6.6989      5.5481      4.6308      3.9707      3.5556      3.3637    
  3.3804      3.6056      4.0559      4.7619      5.7548      7.0389      8.5523      10.141      11.579      12.624    
  13.083      13.013      12.641      12.132      11.467      10.533      9.3276      8.0021      8.5795      7.1132    
  5.8053      4.7641      4.0199      3.5555      3.3414      3.3577      3.6056      4.1094      4.9105      6.0452    
  7.5040      9.1857      10.879      12.281      13.013      13.018      12.630      12.266      12.073      11.830    
  11.189      10.026      10.611      9.0605      7.4397      5.9916      4.8493      4.0456      3.5555      3.3414    
  3.3804      3.6777      4.2678      5.2008      6.5083      8.1495      9.9616      11.640      12.641      12.630    
  11.892      11.133      10.941      11.341      11.791      11.631      11.864      11.039      9.4060      7.6489    
  6.0895      4.8786      4.0456      3.5555      3.3637      3.4475      3.8195      4.5251      5.6184      7.1134    
  8.9168      10.781      12.132      12.266      11.133      9.5002      8.4755      8.7352      10.040      11.416    
  10.890      11.947      11.295      9.5866      7.7210      6.0895      4.8493      4.0199      3.5556      3.4073    
  3.5562      4.0254      4.8701      6.1411      7.8186      9.7373      11.467      12.073      10.941      8.4755    
  6.0044      4.9818      6.0229      8.4808      7.0909      10.446      11.961      11.379      9.5866      7.6489    
  5.9916      4.7641      3.9707      3.5557      3.4695      3.7013      4.2861      5.2861      6.7385      8.5744    
  10.533      11.830      11.341      8.7352      4.9817      1.9487      1.2942      3.3947      1.4885      6.2741    
  10.274      11.961      11.295      9.4060      7.4397      5.8053      4.6308      3.9018      3.5558      3.5470    
  3.8755      4.5885      5.7499      7.3733      9.3277      11.189      11.791      10.040      6.0229      1.2941    
 -1.8621     -1.7889     -3.5445     0.79240      6.2741      10.446      11.947      11.039      9.0605      7.1132    
  5.5481      4.4608      3.8186      3.5559      3.6348      4.0687      4.9147      6.2323      8.0022      10.026    
  11.631      11.416      8.4810      3.3946     -1.7891     -4.5805     -3.5443     -2.1084      2.2148      7.2658    
  10.796      11.727      10.516      8.5069      6.6222      5.1435      4.1367      3.5576      3.3415      3.4560    
  3.9205      4.7944      6.1330      7.9058      9.9003      11.406      11.066      8.1308      3.3053     -1.3554    
 -2.1086     -3.5443     -1.3552      3.3054      8.1307      11.066      11.406      9.9003      7.9058      6.1330    
  4.7944      3.9205      3.4560      3.3415      3.5576      4.1366      5.1435      6.6223      8.5069      10.516    
  11.727      10.796      7.2660      2.2148      2.3583     -1.1988     -1.7888     0.86337      5.3221      9.3656    
  11.330      10.949      9.1957      7.2696      5.6423      4.4626      3.7283      3.3788      3.3638      3.6775    
  4.3627      5.4852      7.0736      9.0282      11.005      11.966      10.707      7.0655      7.6232      3.7158    
  1.1545      1.2943      3.9958      7.7309      10.581      11.397      10.332      8.4553      6.6411      5.1829    
  4.1688      3.5716      3.3307      3.4072      3.8080      4.5825      5.7926      7.4496      9.4268      11.343    
  12.168      10.901      11.352      8.7965      5.9436      4.3828      4.9818      7.3093      9.9437      11.425    
  11.149      9.5913      7.7246      6.0589      4.7816      3.9294      3.4588      3.3144      3.4694      3.9405    
  4.7793      6.0398      7.7164      9.6664      11.513      12.334      12.416      11.913      10.254      8.4846    
  7.7451      8.4755      10.112      11.499      11.703      10.594      8.8196      7.0471      5.5558      4.4590    
  3.7556      3.3951      3.3307      3.5468      4.0658      4.9371      6.2044      7.8483      9.7225      11.494    
  11.267      12.333      12.364      11.586      10.745      10.550      11.133      11.945      12.191      11.426    
  9.8625      8.0921      6.4645      5.1583      4.2298      3.6546      3.3832      3.3789      3.6346      4.1748    
  5.0429      6.2710      7.8316      9.5869      9.2689      10.830      12.012      12.507      12.444      12.272    
  12.349      12.630      12.690      12.099      10.792      9.1322      7.4673      6.0143      4.8870      4.1035    
  3.6299      3.4231      3.4561      3.7273      4.2594      5.0875      6.2336      7.6673      7.3707      8.7955    
  10.212      11.426      12.232      12.650      12.878      13.036      13.013      12.554      11.527      10.091    
  8.5081      7.0005      5.7270      4.7559      4.0853      3.6820      3.5125      3.5578      3.8186      4.3130    
  5.0673      6.0959      5.8713      6.9694      8.2073      9.4689      10.628      11.571      12.242      12.666    
  12.828      12.624      11.954      10.864      9.5054      8.0696      6.7373      5.6244      4.7731      4.1764    
  3.8087      3.6467      3.6777      3.9019      4.3315      4.9847      4.8472      5.5806      6.4991      7.5534    
  8.6621      9.7322      10.682      11.447      11.962      12.154      11.951      11.328      10.345      9.1385    
  7.8773      6.7076      5.7179      4.9407      4.3742      4.0047      3.8189      3.8083      3.9709      4.3132    
  4.2597      4.6669      5.2489      5.9989      6.8859      7.8552      8.8398      9.7701      10.573      11.166    
  11.458      11.374      10.897      10.084      9.0590      7.9651      6.9228      6.0075      5.2536      4.6714    
  4.2614      4.0197      3.9408      4.0203      4.0460      4.1752      4.4584      4.9026      5.5066      6.2536    
  7.1101      8.0305      8.9580      9.8198      10.522      10.960      11.049      10.761      10.142      9.2928    
  8.3355      7.3740      6.4805      5.6987      5.0554      4.5663      4.2375      4.0661      4.1750      4.0460    
  4.0662      4.2376      4.5663      5.0553      5.6987      6.4805      7.3741      8.3354      9.2928      10.142    
  10.761      11.049      10.960      10.522      9.8199      8.9580      8.0304      7.1100      6.2537      5.5067    
  4.9026      4.4583      4.6668      4.2596      4.0202      3.9408      4.0198      4.2614      4.6713      5.2535    
  6.0076      6.9229      7.9651      9.0589      10.084      10.897      11.374      11.458      11.166      10.573    
  9.7702      8.8397      7.8551      6.8859      5.9990      5.2490      5.5807      4.8472      4.3131      3.9708    
  3.8083      3.8190      4.0047      4.3741      4.9406      5.7179      6.7077      7.8773      9.1384      10.345    
  11.329      11.951      12.154      11.962      11.447      10.682      9.7322      8.6620      7.5534      6.4992    
  6.9694      5.8714      4.9848      4.3314      3.9018      3.6777      3.6468      3.8088      4.1763      4.7730    
  5.6245      6.7374      8.0696      9.5053      10.864      11.954      12.624      12.828      12.666      12.242    
  11.571      10.628      9.4688      8.2072      8.7954      7.3706      6.0960      5.0675      4.3130      3.8185    
  3.5577      3.5126      3.6822      4.0852      4.7557      5.7271      7.0007      8.5081      10.091      11.527    
  12.554      13.013      13.036      12.878      12.650      12.232      11.426      10.212      10.830      9.2688    
  7.6672      6.2336      5.0876      4.2594      3.7272      3.4560      3.4232      3.6300      4.1034      4.8869    
  6.0143      7.4674      9.1322      10.792      12.099      12.691      12.630      12.349      12.271      12.444    
  12.507      12.012      12.334      11.267      9.5868      7.8315      6.2711      5.0431      4.1749      3.6345    
  3.3788      3.3833      3.6546      4.2297      5.1583      6.4645      8.0922      9.8624      11.426      12.191    
  11.945      11.133      10.550      10.745      11.586      12.364      11.912      12.416      11.494      9.7225    
  7.8481      6.2044      4.9373      4.0658      3.5466      3.3307      3.3952      3.7556      4.4589      5.5557    
  7.0471      8.8196      10.594      11.703      11.499      10.112      8.4755      7.7451      8.4846      10.254    
  8.7964      11.352      12.334      11.513      9.6663      7.7162      6.0398      4.7794      3.9405      3.4693    
  3.3143      3.4589      3.9294      4.7815      6.0589      7.7247      9.5913      11.149      11.425      9.9437    
  7.3093      4.9818      4.3829      5.9436      3.7158      7.6230      10.901      12.168      11.344      9.4268    
  7.4494      5.7926      4.5826      3.8080      3.4072      3.3307      3.5717      4.1688      5.1829      6.6411    
  8.4553      10.332      11.397      10.581      7.7308      3.9957      1.2943      1.1547     -1.1986      2.3584    
  7.0653      10.707      11.966      11.005      9.0282      7.0735      5.4852      4.3627      3.6775      3.3638    
  3.3788      3.7284      4.4626      5.6423      7.2696      9.1957      10.949      11.330      9.3657      5.3220    
 0.86321     -1.7887      1.4892      2.3589      5.4761      9.1782      11.647      11.989      10.595      8.6011    
  6.7460      5.2774      4.2578      3.6466      3.3803      3.4230      3.7861      4.5208      5.6841      7.2722    
  9.1392      10.865      11.407      9.9347      6.7412      3.3056      2.2151     0.79308      2.2153      5.6905    
  9.3657      11.504      11.472      9.8992      7.9471      6.2087      4.8826      4.0009      3.5124      3.3576    
  3.5124      4.0009      4.8826      6.2088      7.9471      9.8991      11.472      11.504      9.3659      5.6904    
  5.4760      2.3586      1.4891      3.3058      6.7413      9.9346      11.407      10.865      9.1393      7.2722    
  5.6841      4.5208      3.7860      3.4230      3.3803      3.6466      4.2578      5.2774      6.7461      8.6011    
  10.594      11.989      11.647      9.1784      9.5096      6.2001      3.7160      3.3951      5.3224      8.2911    
  10.621      11.225      10.163      8.3665      6.6206      5.2050      4.2129      3.6247      3.3832      3.4474    
  3.8188      4.5418      5.6793      7.2573      9.1849      11.175      12.428      11.928      12.351      10.314    
  7.6906      5.9436      6.0231      7.7310      9.8840      11.139      10.856      9.3926      7.6236      6.0293    
  4.7975      3.9746      3.5249      3.3952      3.5561      4.0196      4.8347      6.0586      7.7007      9.6480    
  11.597      12.780      13.000      12.821      11.376      9.5561      8.4845      8.7352      9.9436      11.099    
  11.281      10.275      8.6214      6.9481      5.5277      4.4807      3.8164      3.4912      3.4589      3.7013    
  4.2374      5.1159      6.3844      8.0362      9.9454      11.820      11.809      13.019      13.173      12.377    
  11.314      10.744      10.941      11.499      11.682      10.998      9.5618      7.9073      6.3740      5.1389    
  4.2674      3.7445      3.5251      3.5719      3.8755      4.4583      5.3639      6.6281      8.2309      10.044    
  9.9299      11.547      12.772      13.240      13.017      12.546      12.271      12.265      12.191      11.614    
  10.404      8.8531      7.2947      5.9318      4.8802      4.1660      3.7613      3.6250      3.7286      4.0687    
  4.6668      5.5583      6.7669      8.2642      8.1315      9.6103      11.049      12.232      12.918      13.106    
  13.024      12.877      12.640      12.099      11.092      9.7238      8.2373      6.8289      5.6477      4.7640    
  4.1804      3.8660      3.7863      3.9208      4.2686      4.8472      5.6824      6.7876      6.6882      7.8455    
  9.1140      10.361      11.438      12.215      12.636      12.769      12.666      12.280      11.527      10.432    
  9.1298      7.7826      6.5508      5.5423      4.7983      4.3113      4.0543      4.0011      4.1370      4.4609    
  4.9846      5.7251      5.6823      6.4785      7.4337      8.4872      9.5433      10.495      11.256      11.772    
  12.014      11.962      11.579      10.864      9.8720      8.7180      7.5484      6.4923      5.6292      4.9858    
  4.5552      4.3184      4.2579      4.3630      4.6308      5.0673      5.0875      5.5581      6.1785      6.9346    
  7.7862      8.6685      9.5063      10.230      10.782      11.111      11.166      10.911      10.345      9.5270    
  8.5626      7.5762      6.6720      5.9130      5.3233      4.9037      4.6462      4.5418      4.5827      4.7642    
  4.8494      5.0429      5.3636      5.8153      6.3918      7.0699      7.8091      8.5594      9.2666      9.8728    
  10.313      10.522      10.448      10.084      9.4741      8.7067      7.8838      7.0917      6.3870      5.7994    
  5.3422      5.0206      4.8345      4.7794      4.9371      4.8787      4.9373      5.1157      5.4193      5.8483    
  6.3926      7.0312      7.7341      8.4608      9.1553      9.7433      10.142      10.283      10.142      9.7433    
  9.1554      8.4608      7.7340      7.0311      6.3926      5.8484      5.4193      5.1156      5.3636      5.0428    
  4.8494      4.7795      4.8347      5.0206      5.3420      5.7993      6.3871      7.0918      7.8837      8.7066    
  9.4741      10.084      10.448      10.522      10.313      9.8729      9.2667      8.5593      7.8090      7.0699    
  6.3920      5.8154      6.1786      5.5581      5.0873      4.7641      4.5827      4.5419      4.6462      4.9036    
  5.3232      5.9130      6.6721      7.5762      8.5625      9.5270      10.345      10.911      11.166      11.111    
  10.783      10.230      9.5062      8.6683      7.7862      6.9348      7.4337      6.4787      5.6824      5.0672    
  4.6307      4.3629      4.2581      4.3185      4.5551      4.9857      5.6292      6.4924      7.5483      8.7179    
  9.8720      10.864      11.579      11.962      12.014      11.772      11.257      10.495      9.5432      8.4871    
  9.1139      7.8455      6.6883      5.7252      4.9846      4.4608      4.1369      4.0012      4.0544      4.3113    
  4.7982      5.5424      6.5509      7.7826      9.1297      10.432      11.527      12.280      12.666      12.768    
  12.636      12.215      11.438      10.361      11.049      9.6101      8.1314      6.7877      5.6826      4.8472    
  4.2684      3.9207      3.7864      3.8661      4.1804      4.7639      5.6477      6.8290      8.2373      9.7237    
  11.092      12.099      12.640      12.877      13.024      13.106      12.919      12.232      12.772      11.547    
  9.9298      8.2640      6.7670      5.5585      4.6668      4.0685      3.7285      3.6251      3.7614      4.1659    
  4.8801      5.9319      7.2948      8.8531      10.404      11.614      12.191      12.265      12.271      12.546    
  13.017      13.240      13.173      13.019      11.809      10.044      8.2307      6.6281      5.3641      4.4583    
  3.8753      3.5718      3.5252      3.7446      4.2673      5.1388      6.3741      7.9074      9.5618      10.998    
  11.682      11.499      10.941      10.744      11.314      12.377      11.375      12.821      13.000      11.820    
  9.9453      8.0360      6.3844      5.1160      4.2375      3.7012      3.4589      3.4913      3.8165      4.4806    
  5.5277      6.9481      8.6214      10.275      11.281      11.099      9.9436      8.7353      8.4846      9.5560    
  7.6906      10.314      12.351      12.780      11.598      9.6480      7.7005      6.0586      4.8348      4.0197    
  3.5560      3.3952      3.5250      3.9746      4.7975      6.0293      7.6236      9.3926      10.856      11.139    
  9.8839      7.7309      6.0231      5.9438      3.7162      6.2002      9.5094      11.928      12.428      11.175    
  9.1848      7.2572      5.6793      4.5419      3.8188      3.4474      3.3832      3.6248      4.2129      5.2050    
  6.6206      8.3665      10.163      11.225      10.621      8.2910      5.3223      3.3952      7.0915      7.6234    
  9.5094      11.642      12.783      12.366      10.771      8.8512      7.0794      5.6597      4.6464      4.0048    
  3.6778      3.6300      3.8660      4.4268      5.3651      6.6961      8.3343      10.048      11.272      11.258    
  9.9346      8.1310      7.2661      6.2748      7.0659      9.1782      11.332      12.300      11.672      9.9965    
  8.1283      6.4697      5.1903      4.3185      3.8088      3.6056      3.6822      4.0543      4.7719      5.8865    
  7.3936      9.1650      10.889      11.810      11.242      9.3657      9.1781      7.0656      6.2748      7.2664    
  9.3658      11.242      11.810      10.889      9.1651      7.3936      5.8865      4.7719      4.0543      3.6821    
  3.6056      3.8088      4.3185      5.1903      6.4698      8.1283      9.9964      11.672      12.300      11.333    
  11.643      9.5093      7.6232      7.0915      8.1311      9.9347      11.258      11.272      10.048      8.3343    
  6.6961      5.3651      4.4268      3.8659      3.6300      3.6778      4.0048      4.6463      5.6597      7.0795    
  8.8512      10.771      12.365      12.783      13.258      12.177      10.314      8.7964      8.4812      9.3659    
  10.622      11.217      10.644      9.1944      7.5515      6.0744      4.9319      4.1706      3.7613      3.6547    
  3.8196      4.2614      5.0208      6.1513      7.6725      9.5056      11.423      12.930      13.314      13.664    
  12.819      11.375      10.253      10.040      10.581      11.139      10.980      9.9178      8.3837      6.8543    
  5.5571      4.6050      4.0132      3.7446      3.7558      4.0255      4.5663      5.4196      6.6301      8.2004    
  10.032      11.889      12.116      13.456      13.894      13.371      12.377      11.586      11.341      11.425    
  11.281      10.497      9.1501      7.6538      6.2723      5.1646      4.3965      3.9602      3.8166      3.9296    
  4.2862      4.9026      5.8156      7.0578      8.6149      10.377      10.501      12.071      13.300      13.833    
  13.624      13.017      12.444      12.073      11.703      10.998      9.8329      8.4294      7.0379      5.8296    
  4.9114      4.3130      4.0132      3.9749      4.1691      4.5886      5.2488      6.1787      7.3967      8.8748    
  8.9522      10.388      11.749      12.831      13.413      13.439      13.106      12.650      12.132      11.425    
  10.404      9.1396      7.8097      6.5693      5.5466      4.8073      4.3576      4.1706      4.2132      4.4629    
  4.9147      5.5804      6.4785      7.6145      7.6896      8.8381      10.046      11.178      12.084      12.645    
  12.804      12.636      12.242      11.640      10.792      9.7238      8.5327      7.3415      6.2796      5.4396    
  4.8587      4.5301      4.4268      4.5210      4.7947      5.2428      5.8710      6.6880      6.7872      7.6142    
  8.5438      9.5087      10.412      11.148      11.637      11.843      11.772      11.447      10.879      10.091    
  9.1298      8.0859      7.0731      6.1961      5.5209      5.0680      4.8262      4.7719      4.8828      5.1438    
  5.5481      6.0956      6.2333      6.7664      7.3962      8.0991      8.8296      9.5240      10.113      10.540    
  10.769      10.783      10.573      10.141      9.5053      8.7180      7.8647      7.0437      6.3381      5.7966    
  5.4324      5.2362      5.1901      5.2774      5.4853      5.8053      5.9916      6.2708      6.6275      7.0573    
  7.5474      8.0723      8.5952      9.0745      9.4703      9.7471      9.8730      9.8199      9.5719      9.1385    
  8.5626      7.9156      7.2772      6.7136      6.2641      5.9419      5.7435      5.6594      5.6791      5.7926    
  6.0396      6.0895      6.2042      6.3839      6.6296      6.9386      7.3016      7.7022      8.1188      8.5245    
  8.8843      9.1555      9.2929      9.2631      9.0590      8.7067      8.2590      7.7776      7.3158      6.9093    
  6.5760      6.3228      6.1509      6.0581      6.3838      6.2041      6.0895      6.0397      6.0583      6.1509    
  6.3226      6.5759      6.9093      7.3159      7.7775      8.2589      8.7067      9.0591      9.2631      9.2928    
  9.1555      8.8844      8.5245      8.1187      7.7021      7.3016      6.9388      6.6296      7.0574      6.6274    
  6.2707      5.9915      5.7927      5.6792      5.6595      5.7434      5.9418      6.2642      6.7137      7.2771    
  7.9155      8.5626      9.1386      9.5720      9.8198      9.8730      9.7473      9.4704      9.0744      8.5951    
  8.0723      7.5475      8.0992      7.3963      6.7664      6.2332      5.8052      5.4853      5.2776      5.1902    
  5.2361      5.4323      5.7966      6.3382      7.0436      7.8646      8.7180      9.5054      10.141      10.573    
  10.783      10.769      10.540      10.113      9.5238      8.8296      9.5086      8.5438      7.6144      6.7873    
  6.0955      5.5479      5.1437      4.8829      4.7720      4.8261      5.0679      5.5209      6.1962      7.0730    
  8.0858      9.1298      10.091      10.879      11.446      11.772      11.843      11.637      11.148      10.412    
  11.178      10.046      8.8380      7.6897      6.6882      5.8710      5.2426      4.7946      4.5212      4.4269    
  4.5301      4.8586      5.4397      6.2797      7.3414      8.5325      9.7238      10.792      11.640      12.242    
  12.636      12.804      12.645      12.084      12.831      11.749      10.388      8.9521      7.6146      6.4787    
  5.5805      4.9145      4.4628      4.2133      4.1707      4.3576      4.8072      5.5467      6.5694      7.8097    
  9.1395      10.404      11.425      12.132      12.650      13.106      13.439      13.413      13.833      13.300    
  12.071      10.501      8.8745      7.3967      6.1789      5.2489      4.5884      4.1690      3.9750      4.0133    
  4.3129      4.9113      5.8297      7.0380      8.4294      9.8328      10.998      11.703      12.073      12.444    
  13.016      13.624      13.371      13.894      13.456      12.117      10.377      8.6147      7.0578      5.8158    
  4.9026      4.2861      3.9295      3.8167      3.9602      4.3964      5.1646      6.2724      7.6539      9.1501    
  10.497      11.281      11.425      11.341      11.586      12.377      11.375      12.819      13.664      13.315    
  11.890      10.032      8.2002      6.6301      5.4197      4.5664      4.0254      3.7557      3.7447      4.0132    
  4.6050      5.5570      6.8544      8.3837      9.9177      10.980      11.139      10.581      10.040      10.254    
  8.7966      10.314      12.176      13.258      12.930      11.423      9.5055      7.6723      6.1513      5.0209    
  4.2615      3.8195      3.6547      3.7614      4.1706      4.9318      6.0744      7.5516      9.1944      10.644    
  11.217      10.622      9.3658      8.4812      10.891      11.352      12.351      13.258      13.384      12.492    
  10.943      9.2297      7.6350      6.3229      5.3423      4.6714      4.2679      4.1036      4.1805      4.5302    
  5.1967      6.2040      7.5114      8.9799      10.375      11.272      11.407      11.066      10.796      10.447    
  10.901      11.928      12.782      12.764      11.724      10.118      8.4322      6.9284      5.7437      4.9038    
  4.3743      4.1096      4.0855      4.3114      4.8262      5.6752      6.8702      8.3400      9.9010      11.231    
  11.810      11.503      11.646      10.707      10.275      10.707      11.646      12.299      12.035      10.837    
  9.2275      7.6272      6.2619      5.2363      4.5553      4.1765      4.0562      4.1766      4.5553      5.2362    
  6.2619      7.6272      9.2274      10.837      12.035      12.299      12.783      11.927      10.900      10.447    
  10.796      11.504      11.809      11.230      9.9010      8.3401      6.8702      5.6752      4.8263      4.3114    
  4.0854      4.1096      4.3743      4.9038      5.7436      6.9285      8.4322      10.118      11.724      12.765    
  13.384      13.258      12.351      11.352      10.891      11.067      11.407      11.272      10.375      8.9800    
  7.5114      6.2039      5.1967      4.5302      4.1805      4.1036      4.2680      4.6715      5.3422      6.3229    
  7.6351      9.2297      10.943      12.492      13.069      13.837      13.664      12.820      11.912      11.416    
  11.331      11.225      10.644      9.5023      8.1232      6.7830      5.6583      4.8448      4.3577      4.1660    
  4.2298      4.5252      5.0553      5.8485      6.9389      8.3313      9.9546      11.628      12.101      13.388    