unknown system                          
   1.00000000000000     
    -2.450000    2.450000    1.274000
     2.450000   -2.450000    1.274000
     2.450000    2.450000   -1.274000
   Si
     2
Direct
  0.250000  0.750000  0.500000
  0.000000  0.000000  0.000000
 
   24   24   24
 -5.5685     -3.5466      1.4873      7.0905      10.890      11.863      10.610      8.5789      6.6985      5.2430    
  4.2694      3.7289      3.5577      3.7290      4.2694      5.2429      6.6985      8.5790      10.610      11.863    
  10.890      7.0905      1.4872     -3.5469     -3.5469     -4.5828     -1.7906      3.3939      8.4807      11.416    
  11.631      10.025      8.0017      6.2321      4.9151      4.0698      3.6364      3.5577      3.8200      4.4614    
  5.5480      7.1127      9.0599      11.038      11.946      10.446      6.2735     0.79086      1.4872     -1.7908    
 -1.8637      1.2932      6.0227      10.040      11.792      11.189      9.3274      7.3729      5.7500      4.5892    
  3.8768      3.5487      3.5576      3.9030      4.6311      5.8050      7.4392      9.4054      11.294      11.961    
  10.274      6.2735      7.0905      3.3938      1.2931      1.9480      4.9817      8.7357      11.342      11.831    
  10.533      8.5742      6.7383      5.2864      4.2871      3.7028      3.4714      3.5575      3.9717      4.7643    
  5.9912      7.6483      9.5860      11.379      11.961      10.446      10.890      8.4808      6.0226      4.9816    
  6.0047      8.4763      10.942      12.074      11.468      9.7374      7.8183      6.1410      4.8706      4.0265    
  3.5578      3.4092      3.5573      4.0208      4.8493      6.0890      7.7204      9.5860      11.294      11.946    
  11.863      11.416      10.040      8.7357      8.4763      9.5013      11.134      12.267      12.133      10.781    
  8.9167      7.1130      5.6184      4.5258      3.8209      3.4493      3.3657      3.5572      4.0464      4.8786    
  6.0890      7.6483      9.4054      11.038      10.610      11.631      11.792      11.342      10.942      11.134    
  11.894      12.632      12.642      11.641      9.9620      8.1492      6.5080      5.2010      4.2687      3.6792    
  3.3822      3.3434      3.5572      4.0464      4.8493      5.9912      7.4392      9.0599      8.5790      10.025    
  11.189      11.831      12.074      12.267      12.632      13.020      13.014      12.282      10.880      9.1858    
  7.5036      6.0448      4.9108      4.1103      3.6070      3.3596      3.3434      3.5572      4.0208      4.7643    
  5.8050      7.1127      6.6985      8.0017      9.3275      10.533      11.468      12.133      12.642      13.015    
  13.085      12.626      11.580      10.142      8.5522      7.0384      5.7545      4.7622      4.0569      3.6070    
  3.3822      3.3657      3.5573      3.9717      4.6311      5.5480      5.2429      6.2321      7.3730      8.5743    
  9.7375      10.781      11.641      12.282      12.626      12.542      11.952      10.912      9.5723      8.1387    
  6.7951      5.6557      4.7622      4.1103      3.6792      3.4493      3.4092      3.5575      3.9030      4.4614    
  4.2694      4.9151      5.7499      6.7384      7.8184      8.9168      9.9620      10.880      11.581      11.953    
  11.896      11.375      10.449      9.2633      7.9953      6.7951      5.7545      4.9108      4.2687      3.8209    
  3.5578      3.4714      3.5576      3.8200      3.7290      4.0698      4.5892      5.2863      6.1410      7.1131    
  8.1493      9.1858      10.142      10.912      11.375      11.432      11.050      10.284      9.2633      8.1387    
  7.0384      6.0448      5.2010      4.5258      4.0265      3.7028      3.5487      3.5577      3.5577      3.6365    
  3.8769      4.2871      4.8706      5.6184      6.5081      7.5037      8.5522      9.5722      10.449      11.050    
  11.265      11.050      10.449      9.5723      8.5522      7.5036      6.5080      5.6184      4.8706      4.2871    
  3.8768      3.6364      3.7289      3.5577      3.5488      3.7029      4.0266      4.5258      5.2009      6.0449    
  7.0385      8.1388      9.2633      10.284      11.050      11.432      11.375      10.912      10.142      9.1858    
  8.1492      7.1130      6.1410      5.2864      4.5892      4.0698      4.2694      3.8200      3.5576      3.4715    
  3.5580      3.8210      4.2687      4.9107      5.7546      6.7952      7.9953      9.2633      10.449      11.375    
  11.896      11.952      11.580      10.880      9.9620      8.9167      7.8183      6.7383      5.7500      4.9151    
  5.2430      4.4615      3.9031      3.5575      3.4093      3.4495      3.6793      4.1103      4.7621      5.6557    
  6.7952      8.1388      9.5722      10.912      11.953      12.542      12.626      12.282      11.641      10.781    
  9.7374      8.5742      7.3729      6.2321      6.6985      5.5481      4.6313      3.9719      3.5574      3.3658    
  3.3824      3.6072      4.0569      4.7621      5.7546      7.0385      8.5522      10.142      11.581      12.626    
  13.085      13.014      12.642      12.133      11.468      10.533      9.3274      8.0017      8.5789      7.1126    
  5.8051      4.7645      4.0210      3.5572      3.3435      3.3598      3.6072      4.1103      4.9107      6.0449    
  7.5037      9.1858      10.880      12.282      13.015      13.020      12.632      12.267      12.074      11.831    
  11.189      10.025      10.610      9.0599      7.4391      5.9913      4.8497      4.0466      3.5572      3.3435    
  3.3824      3.6793      4.2687      5.2009      6.5081      8.1493      9.9620      11.641      12.642      12.632    
  11.894      11.134      10.942      11.342      11.792      11.631      11.863      11.038      9.4054      7.6483    
  6.0891      4.8789      4.0466      3.5572      3.3658      3.4495      3.8210      4.5258      5.6184      7.1131    
  8.9168      10.781      12.133      12.267      11.134      9.5013      8.4763      8.7357      10.040      11.416    
  10.890      11.947      11.294      9.5860      7.7203      6.0891      4.8497      4.0210      3.5574      3.4093    
  3.5580      4.0266      4.8706      6.1410      7.8184      9.7375      11.468      12.074      10.942      8.4763    
  6.0047      4.9817      6.0227      8.4807      7.0905      10.446      11.961      11.379      9.5860      7.6483    
  5.9913      4.7645      3.9719      3.5575      3.4715      3.7029      4.2871      5.2863      6.7384      8.5743    
  10.533      11.831      11.342      8.7357      4.9816      1.9480      1.2932      3.3939      1.4873      6.2734    
  10.274      11.961      11.294      9.4054      7.4391      5.8051      4.6313      3.9031      3.5576      3.5488    
  3.8769      4.5892      5.7499      7.3730      9.3275      11.189      11.792      10.040      6.0226      1.2931    
 -1.8637     -1.7906     -3.5466     0.79101      6.2734      10.446      11.947      11.038      9.0599      7.1126    
  5.5481      4.4615      3.8200      3.5577      3.6365      4.0698      4.9151      6.2321      8.0017      10.025    
  11.631      11.416      8.4808      3.3938     -1.7908     -4.5828     -3.5464     -2.1103      2.2137      7.2652    
  10.796      11.727      10.516      8.5064      6.6220      5.1439      4.1378      3.5593      3.3435      3.4579    
  3.9218      4.7950      6.1329      7.9054      9.8999      11.406      11.066      8.1303      3.3043     -1.3572    
 -2.1105     -3.5464     -1.3569      3.3045      8.1303      11.066      11.406      9.9000      7.9054      6.1330    
  4.7950      3.9218      3.4578      3.3435      3.5593      4.1377      5.1438      6.6220      8.5064      10.516    
  11.727      10.796      7.2653      2.2135      2.3572     -1.2004     -1.7904     0.86223      5.3216      9.3656    
  11.330      10.949      9.1955      7.2694      5.6425      4.4635      3.7299      3.3808      3.3657      3.6790    
  4.3634      5.4852      7.0731      9.0276      11.004      11.966      10.706      7.0649      7.6228      3.7150    
  1.1535      1.2934      3.9954      7.7310      10.581      11.397      10.332      8.4552      6.6411      5.1833    
  4.1700      3.5734      3.3327      3.4091      3.8093      4.5830      5.7924      7.4489      9.4261      11.343    
  12.167      10.901      11.352      8.7964      5.9433      4.3826      4.9818      7.3098      9.9444      11.426    
  11.150      9.5914      7.7245      6.0590      4.7822      3.9307      3.4607      3.3164      3.4712      3.9416    
  4.7795      6.0393      7.7156      9.6656      11.513      12.334      12.416      11.913      10.254      8.4850    
  7.7457      8.4763      10.113      11.501      11.704      10.595      8.8197      7.0470      5.5560      4.4598    
  3.7571      3.3971      3.3327      3.5484      4.0667      4.9372      6.2038      7.8474      9.7218      11.493    
  11.267      12.333      12.365      11.587      10.746      10.552      11.134      11.946      12.192      11.427    
  9.8629      8.0921      6.4644      5.1586      4.2307      3.6561      3.3852      3.3808      3.6361      4.1756    
  5.0429      6.2704      7.8308      9.5862      9.2683      10.830      12.012      12.507      12.445      12.273    
  12.351      12.632      12.692      12.100      10.793      9.1324      7.4671      6.0141      4.8873      4.1044    
  3.6314      3.4250      3.4579      3.7287      4.2601      5.0874      6.2330      7.6665      7.3699      8.7949    
  10.212      11.427      12.233      12.651      12.879      13.038      13.014      12.556      11.529      10.091    
  8.5080      7.0002      5.7268      4.7561      4.0862      3.6835      3.5142      3.5595      3.8199      4.3137    
  5.0673      6.0954      5.8709      6.9687      8.2067      9.4687      10.628      11.572      12.243      12.668    
  12.830      12.626      11.956      10.865      9.5057      8.0694      6.7369      5.6242      4.7733      4.1772    
  3.8100      3.6483      3.6793      3.9032      4.3322      4.9848      4.8475      5.5804      6.4986      7.5529    
  8.6618      9.7322      10.683      11.447      11.963      12.156      11.952      11.330      10.346      9.1387    
  7.8770      6.7071      5.7176      4.9407      4.3748      4.0058      3.8203      3.8097      3.9721      4.3140    
  4.2605      4.6673      5.2489      5.9987      6.8854      7.8548      8.8396      9.7702      10.574      11.167    
  11.459      11.375      10.898      10.085      9.0590      7.9647      6.9223      6.0071      5.2535      4.6718    
  4.2622      4.0209      3.9421      4.0214      4.0471      4.1761      4.4591      4.9029      5.5066      6.2533    
  7.1097      8.0300      8.9579      9.8201      10.523      10.961      11.050      10.762      10.142      9.2930    
  8.3352      7.3735      6.4800      5.6985      5.0556      4.5669      4.2384      4.0672      4.1760      4.0471    
  4.0673      4.2385      4.5669      5.0555      5.6985      6.4801      7.3736      8.3351      9.2929      10.142    
  10.762      11.050      10.961      10.523      9.8201      8.9579      8.0299      7.1095      6.2533      5.5067    
  4.9029      4.4590      4.6672      4.2604      4.0214      3.9421      4.0210      4.2623      4.6718      5.2534    
  6.0071      6.9224      7.9647      9.0590      10.085      10.898      11.375      11.459      11.167      10.574    
  9.7702      8.8395      7.8546      6.8854      5.9987      5.2490      5.5804      4.8474      4.3138      3.9720    
  3.8097      3.8205      4.0059      4.3748      4.9407      5.7176      6.7072      7.8770      9.1386      10.346    
  11.330      11.952      12.156      11.963      11.447      10.683      9.7321      8.6616      7.5528      6.4986    
  6.9687      5.8709      4.9849      4.3321      3.9030      3.6793      3.6485      3.8102      4.1771      4.7732    
  5.6242      6.7370      8.0694      9.5056      10.865      11.956      12.626      12.830      12.667      12.243    
  11.572      10.628      9.4685      8.2066      8.7947      7.3698      6.0954      5.0675      4.3137      3.8198    
  3.5595      3.5144      3.6837      4.0861      4.7560      5.7268      7.0003      8.5080      10.091      11.529    
  12.556      13.014      13.038      12.879      12.651      12.233      11.426      10.211      10.830      9.2681    
  7.6663      6.2330      5.0876      4.2602      3.7286      3.4579      3.4252      3.6316      4.1044      4.8872    
  6.0142      7.4672      9.1324      10.793      12.100      12.692      12.631      12.351      12.273      12.445    
  12.507      12.012      12.334      11.267      9.5861      7.8306      6.2705      5.0431      4.1757      3.6361    
  3.3809      3.3854      3.6562      4.2306      5.1585      6.4644      8.0921      9.8628      11.426      12.192    
  11.946      11.134      10.551      10.745      11.586      12.365      11.913      12.416      11.493      9.7218    
  7.8473      6.2039      4.9375      4.0669      3.5484      3.3328      3.3973      3.7571      4.4597      5.5559    
  7.0470      8.8197      10.595      11.704      11.500      10.112      8.4762      7.7455      8.4849      10.254    
  8.7962      11.352      12.334      11.513      9.6657      7.7155      6.0395      4.7798      3.9418      3.4712    
  3.3165      3.4608      3.9308      4.7822      6.0590      7.7246      9.5914      11.150      11.426      9.9442    
  7.3095      4.9816      4.3825      5.9433      3.7150      7.6226      10.900      12.167      11.343      9.4261    
  7.4489      5.7925      4.5832      3.8095      3.4092      3.3328      3.5735      4.1700      5.1833      6.6411    
  8.4552      10.332      11.397      10.581      7.7308      3.9952      1.2933      1.1536     -1.2002      2.3573    
  7.0648      10.706      11.966      11.005      9.0277      7.0731      5.4853      4.3636      3.6791      3.3658    
  3.3808      3.7299      4.4634      5.6425      7.2693      9.1954      10.949      11.330      9.3655      5.3214    
 0.86196     -1.7905      1.4880      2.3578      5.4754      9.1778      11.647      11.988      10.594      8.6005    
  6.7457      5.2777      4.2588      3.6482      3.3822      3.4249      3.7875      4.5215      5.6842      7.2719    
  9.1388      10.865      11.407      9.9344      6.7407      3.3047      2.2140     0.79175      2.2142      5.6898    
  9.3654      11.503      11.471      9.8988      7.9466      6.2086      4.8831      4.0021      3.5141      3.3595    
  3.5141      4.0020      4.8831      6.2086      7.9466      9.8987      11.471      11.504      9.3655      5.6897    
  5.4753      2.3576      1.4880      3.3050      6.7409      9.9344      11.407      10.865      9.1389      7.2719    
  5.6842      4.5216      3.7875      3.4249      3.3822      3.6481      4.2587      5.2776      6.7457      8.6005    
  10.594      11.988      11.647      9.1780      9.5094      6.1997      3.7153      3.3944      5.3220      8.2911    
  10.622      11.225      10.163      8.3663      6.6206      5.2054      4.2140      3.6264      3.3851      3.4493    
  3.8201      4.5424      5.6792      7.2567      9.1842      11.175      12.427      11.928      12.352      10.315    
  7.6906      5.9435      6.0231      7.7313      9.8844      11.139      10.856      9.3926      7.6235      6.0294    
  4.7982      3.9759      3.5267      3.3971      3.5578      4.0207      4.8350      6.0582      7.7000      9.6473    
  11.597      12.779      13.000      12.821      11.376      9.5566      8.4850      8.7358      9.9445      11.100    
  11.282      10.276      8.6214      6.9480      5.5280      4.4815      3.8179      3.4930      3.4608      3.7028    
  4.2383      5.1159      6.3838      8.0354      9.9447      11.820      11.809      13.019      13.174      12.378    
  11.315      10.745      10.942      11.500      11.683      10.998      9.5621      7.9073      6.3739      5.1392    
  4.2683      3.7460      3.5269      3.5736      3.8768      4.4589      5.3637      6.6273      8.2300      10.043    
  9.9292      11.547      12.772      13.241      13.018      12.547      12.273      12.267      12.192      11.615    
  10.404      8.8532      7.2945      5.9317      4.8805      4.1668      3.7627      3.6267      3.7302      4.0698    
  4.6672      5.5580      6.7661      8.2632      8.1305      9.6096      11.049      12.232      12.919      13.107    
  13.026      12.879      12.642      12.100      11.092      9.7242      8.2373      6.8285      5.6475      4.7643    
  4.1812      3.8672      3.7878      3.9222      4.2695      4.8474      5.6820      6.7868      6.6874      7.8445    
  9.1133      10.360      11.439      12.216      12.637      12.770      12.667      12.282      11.528      10.433    
  9.1300      7.7823      6.5504      5.5420      4.7984      4.3119      4.0553      4.0024      4.1381      4.4617    
  4.9848      5.7246      5.6819      6.4777      7.4328      8.4864      9.5429      10.495      11.257      11.773    
  12.015      11.963      11.580      10.865      9.8725      8.7180      7.5479      6.4918      5.6288      4.9857    
  4.5556      4.3192      4.2590      4.3639      4.6315      5.0674      5.0876      5.5578      6.1779      6.9338    
  7.7854      8.6679      9.5060      10.230      10.783      11.112      11.167      10.912      10.346      9.5273    
  8.5624      7.5757      6.6713      5.9123      5.3230      4.9038      4.6467      4.5426      4.5834      4.7647    
  4.8498      5.0431      5.3635      5.8149      6.3912      7.0691      7.8084      8.5588      9.2663      9.8729    
  10.314      10.523      10.449      10.085      9.4743      8.7065      7.8832      7.0909      6.3863      5.7989    
  5.3420      5.0208      4.8350      4.7799      4.9374      4.8790      4.9376      5.1158      5.4192      5.8479    
  6.3920      7.0305      7.7334      8.4603      9.1552      9.7436      10.142      10.284      10.142      9.7436    
  9.1553      8.4604      7.7333      7.0303      6.3920      5.8480      5.4192      5.1157      5.3634      5.0429    
  4.8497      4.7799      4.8351      5.0208      5.3419      5.7988      6.3864      7.0910      7.8832      8.7064    
  9.4743      10.085      10.449      10.522      10.314      9.8730      9.2664      8.5588      7.8083      7.0691    
  6.3913      5.8150      6.1779      5.5577      5.0874      4.7645      4.5834      4.5426      4.6467      4.9037    
  5.3229      5.9124      6.6714      7.5756      8.5623      9.5273      10.346      10.912      11.167      11.112    
  10.783      10.230      9.5059      8.6677      7.7853      6.9339      7.4328      6.4778      5.6819      5.0672    
  4.6312      4.3638      4.2590      4.3193      4.5555      4.9856      5.6288      6.4918      7.5479      8.7178    
  9.8725      10.865      11.580      11.963      12.015      11.773      11.257      10.495      9.5427      8.4863    
  9.1131      7.8444      6.6874      5.7246      4.9846      4.4614      4.1380      4.0025      4.0554      4.3119    
  4.7982      5.5420      6.5504      7.7823      9.1299      10.433      11.528      12.282      12.667      12.770    
  12.637      12.216      11.439      10.360      11.049      9.6093      8.1303      6.7867      5.6821      4.8473    
  4.2693      3.9220      3.7879      3.8673      4.1811      4.7641      5.6475      6.8286      8.2372      9.7241    
  11.092      12.100      12.642      12.879      13.025      13.107      12.919      12.232      12.772      11.547    
  9.9290      8.2630      6.7660      5.5581      4.6672      4.0696      3.7301      3.6268      3.7628      4.1667    
  4.8803      5.9317      7.2946      8.8532      10.404      11.615      12.192      12.267      12.272      12.547    
  13.018      13.241      13.174      13.019      11.809      10.043      8.2297      6.6273      5.3639      4.4589    
  3.8767      3.5736      3.5270      3.7460      4.2682      5.1391      6.3739      7.9073      9.5620      10.998    
  11.683      11.500      10.942      10.745      11.315      12.378      11.376      12.821      13.000      11.820    
  9.9446      8.0351      6.3838      5.1161      4.2384      3.7027      3.4608      3.4931      3.8179      4.4814    
  5.5279      6.9480      8.6214      10.275      11.281      11.099      9.9442      8.7357      8.4849      9.5563    
  7.6905      10.314      12.351      12.780      11.597      9.6473      7.6998      6.0582      4.8352      4.0208    
  3.5578      3.3971      3.5268      3.9759      4.7981      6.0293      7.6234      9.3925      10.856      11.139    
  9.8842      7.7310      6.0229      5.9435      3.7154      6.1997      9.5092      11.928      12.428      11.175    
  9.1842      7.2566      5.6792      4.5426      3.8202      3.4492      3.3852      3.6264      4.2140      5.2054    
  6.6205      8.3662      10.163      11.225      10.621      8.2908      5.3217      3.3944      7.0911      7.6231    
  9.5092      11.642      12.783      12.365      10.770      8.8505      7.0788      5.6595      4.6469      4.0058    
  3.6793      3.6315      3.8672      4.4275      5.3652      6.6958      8.3338      10.048      11.272      11.258    
  9.9344      8.1307      7.2657      6.2742      7.0654      9.1779      11.332      12.299      11.672      9.9959    
  8.1276      6.4693      5.1904      4.3193      3.8101      3.6071      3.6836      4.0553      4.7723      5.8864    
  7.3931      9.1644      10.888      11.809      11.242      9.3654      9.1778      7.0651      6.2742      7.2659    
  9.3655      11.241      11.809      10.888      9.1645      7.3931      5.8864      4.7724      4.0553      3.6836    
  3.6072      3.8101      4.3192      5.1904      6.4693      8.1277      9.9958      11.672      12.300      11.332    
  11.643      9.5092      7.6229      7.0911      8.1309      9.9346      11.258      11.272      10.048      8.3338    
  6.6958      5.3652      4.4275      3.8672      3.6315      3.6793      4.0058      4.6468      5.6595      7.0789    
  8.8505      10.770      12.365      12.783      13.259      12.177      10.314      8.7964      8.4812      9.3660    
  10.622      11.217      10.644      9.1941      7.5512      6.0742      4.9322      4.1715      3.7627      3.6563    
  3.8210      4.2623      5.0210      6.1509      7.6718      9.5049      11.422      12.930      13.315      13.665    
  12.819      11.376      10.254      10.041      10.581      11.139      10.981      9.9178      8.3835      6.8541    
  5.5571      4.6056      4.0143      3.7460      3.7573      4.0267      4.5669      5.4195      6.6295      8.1995    
  10.031      11.889      12.116      13.456      13.895      13.372      12.378      11.586      11.342      11.426    
  11.282      10.497      9.1502      7.6536      6.2721      5.1648      4.3971      3.9613      3.8180      3.9310    
  4.2872      4.9029      5.8152      7.0570      8.6140      10.376      10.501      12.071      13.301      13.834    
  13.625      13.018      12.445      12.074      11.704      10.998      9.8332      8.4293      7.0376      5.8295    
  4.9116      4.3136      4.0143      3.9762      4.1703      4.5893      5.2489      6.1781      7.3957      8.8738    
  8.9512      10.387      11.749      12.831      13.414      13.440      13.107      12.651      12.133      11.426    
  10.404      9.1398      7.8095      6.5689      5.5463      4.8075      4.3582      4.1716      4.2143      4.4639    
  4.9152      5.5803      6.4778      7.6134      7.6884      8.8371      10.045      11.177      12.085      12.646    
  12.805      12.637      12.243      11.641      10.793      9.7242      8.5326      7.3411      6.2791      5.4393    
  4.8587      4.5305      4.4276      4.5219      4.7955      5.2431      5.8707      6.6872      6.7863      7.6131    
  8.5427      9.5079      10.411      11.148      11.637      11.844      11.773      11.447      10.880      10.091    
  9.1300      8.0857      7.0725      6.1955      5.5203      5.0677      4.8263      4.7723      4.8834      5.1442    
  5.5482      6.0951      6.2328      6.7655      7.3951      8.0980      8.8287      9.5233      10.113      10.540    
  10.769      10.783      10.574      10.142      9.5056      8.7180      7.8643      7.0430      6.3372      5.7958    
  5.4319      5.2360      5.1903      5.2777      5.4855      5.8052      5.9914      6.2703      6.6267      7.0563    
  7.5463      8.0713      8.5943      9.0738      9.4698      9.7469      9.8731      9.8201      9.5722      9.1386    
  8.5625      7.9151      7.2764      6.7127      6.2632      5.9412      5.7431      5.6593      5.6791      5.7926    
  6.0393      6.0891      6.2038      6.3833      6.6288      6.9377      7.3006      7.7012      8.1180      8.5238    
  8.8839      9.1554      9.2930      9.2633      9.0590      8.7065      8.2585      7.7768      7.3149      6.9083    
  6.5751      6.3221      6.1504      6.0578      6.3832      6.2036      6.0891      6.0394      6.0579      6.1504    
  6.3219      6.5750      6.9084      7.3150      7.7767      8.2584      8.7065      9.0591      9.2633      9.2929    
  9.1553      8.8840      8.5239      8.1179      7.7011      7.3007      6.9380      6.6289      7.0564      6.6266    
  6.2701      5.9912      5.7925      5.6791      5.6592      5.7430      5.9411      6.2633      6.7128      7.2763    
  7.9149      8.5624      9.1387      9.5722      9.8200      9.8731      9.7471      9.4700      9.0738      8.5943    
  8.0713      7.5465      8.0981      7.3952      6.7655      6.2325      5.8049      5.4854      5.2778      5.1903    
  5.2359      5.4318      5.7958      6.3373      7.0429      7.8641      8.7179      9.5056      10.142      10.574    
  10.783      10.769      10.540      10.113      9.5232      8.8287      9.5078      8.5427      7.6131      6.7863    
  6.0949      5.5478      5.1440      4.8834      4.7724      4.8262      5.0676      5.5204      6.1955      7.0725    
  8.0855      9.1300      10.091      10.880      11.447      11.773      11.844      11.637      11.148      10.411    
  11.177      10.045      8.8369      7.6884      6.6872      5.8705      5.2427      4.7952      4.5219      4.4276    
  4.5304      4.8585      5.4393      6.2792      7.3410      8.5325      9.7242      10.793      11.641      12.243    
  12.637      12.805      12.646      12.085      12.831      11.749      10.387      8.9509      7.6134      6.4778    
  5.5801      4.9149      4.4636      4.2143      4.1716      4.3581      4.8073      5.5464      6.5690      7.8094    
  9.1397      10.404      11.426      12.133      12.651      13.107      13.440      13.414      13.834      13.301    
  12.071      10.500      8.8734      7.3956      6.1782      5.2488      4.5890      4.1701      3.9762      4.0144    
  4.3135      4.9115      5.8295      7.0377      8.4293      9.8330      10.998      11.704      12.074      12.445    
  13.017      13.625      13.371      13.895      13.456      12.116      10.376      8.6136      7.0569      5.8153    
  4.9028      4.2870      3.9309      3.8181      3.9613      4.3970      5.1647      6.2721      7.6536      9.1501    
  10.497      11.281      11.426      11.342      11.586      12.378      11.376      12.819      13.665      13.315    
  11.889      10.031      8.1992      6.6294      5.4196      4.5669      4.0265      3.7572      3.7461      4.0143    
  4.6055      5.5570      6.8541      8.3835      9.9177      10.980      11.139      10.581      10.040      10.254    
  8.7965      10.314      12.176      13.258      12.930      11.423      9.5048      7.6715      6.1508      5.0211    
  4.2623      3.8209      3.6562      3.7628      4.1715      4.9321      6.0742      7.5512      9.1941      10.643    
  11.217      10.622      9.3658      8.4812      10.891      11.352      12.351      13.258      13.384      12.492    
  10.943      9.2288      7.6341      6.3223      5.3422      4.6718      4.2687      4.1046      4.1813      4.5306    
  5.1966      6.2035      7.5108      8.9794      10.374      11.272      11.407      11.066      10.796      10.447    
  10.901      11.927      12.782      12.764      11.724      10.117      8.4313      6.9276      5.7432      4.9040    
  4.3749      4.1105      4.0863      4.3121      4.8264      5.6748      6.8696      8.3393      9.9004      11.230    
  11.809      11.503      11.646      10.706      10.274      10.707      11.646      12.299      12.035      10.837    
  9.2267      7.6263      6.2613      5.2362      4.5557      4.1773      4.0571      4.1774      4.5557      5.2361    
  6.2614      7.6264      9.2267      10.837      12.035      12.299      12.783      11.927      10.900      10.446    
  10.796      11.503      11.809      11.230      9.9004      8.3393      6.8695      5.6749      4.8264      4.3120    
  4.0863      4.1105      4.3749      4.9039      5.7433      6.9278      8.4314      10.117      11.724      12.764    
  13.384      13.258      12.351      11.352      10.890      11.066      11.407      11.272      10.374      8.9794    
  7.5107      6.2035      5.1966      4.5306      4.1813      4.1045      4.2688      4.6719      5.3422      6.3223    
  7.6343      9.2290      10.943      12.492      13.069      13.837      13.665      12.821      11.912      11.416    
  11.331      11.225      10.644      9.5020      8.1227      6.7825      5.6580      4.8449      4.3582      4.1669    
  4.2308      4.5259      5.0555      5.8481      6.9382      8.3305      9.9540      11.628      12.101      13.389    