unknown system                          
   1.00000000000000     
    -2.450000    2.450000    1.274000
     2.450000   -2.450000    1.274000
     2.450000    2.450000   -1.274000
   Si
     2
Direct
  0.250000  0.750000  0.500000
  0.000000  0.000000  0.000000
 
   24   24   24
 -.55684680298E+01 -.35466435922E+01 0.14872931623E+01 0.70904551556E+01 0.10890238095E+02
 0.11863497448E+02 0.10610174148E+02 0.85789302032E+01 0.66985192013E+01 0.52429786775E+01
 0.42694105744E+01 0.37289167261E+01 0.35576658123E+01 0.37289723690E+01 0.42693927180E+01
 0.52429132257E+01 0.66985357006E+01 0.85789619417E+01 0.10610065592E+02 0.11863346467E+02
 0.10890248285E+02 0.70905204526E+01 0.14871562187E+01 -.35468836549E+01 -.35468836549E+01
 -.45827644480E+01 -.17906141687E+01 0.33938632577E+01 0.84807109989E+01 0.11416375877E+02
 0.11631332411E+02 0.10025288441E+02 0.80016891925E+01 0.62320811726E+01 0.49151345588E+01
 0.40697564172E+01 0.36363793063E+01 0.35576527998E+01 0.38200002082E+01 0.44614444729E+01
 0.55479614435E+01 0.71126748270E+01 0.90599254846E+01 0.11038019999E+02 0.11946426327E+02
 0.10446137593E+02 0.62734993671E+01 0.79086299756E+00 0.14871562187E+01 -.17908229585E+01
 -.18637457226E+01 0.12932365679E+01 0.60227055442E+01 0.10040305875E+02 0.11791721650E+02
 0.11188582530E+02 0.93274182008E+01 0.73728896757E+01 0.57499539951E+01 0.45892157048E+01
 0.38767657019E+01 0.35486680081E+01 0.35575881871E+01 0.39029961512E+01 0.46311055443E+01
 0.58050120606E+01 0.74391612930E+01 0.94053704156E+01 0.11294027846E+02 0.11960756161E+02
 0.10273861813E+02 0.62734993671E+01 0.70905204526E+01 0.33937579527E+01 0.12930843822E+01
 0.19479654835E+01 0.49816703273E+01 0.87357236474E+01 0.11341872664E+02 0.11830976058E+02
 0.10532645750E+02 0.85741561507E+01 0.67382983256E+01 0.52863841160E+01 0.42870950892E+01
 0.37027860693E+01 0.34713835134E+01 0.35574808202E+01 0.39717321952E+01 0.47642858800E+01
 0.59911581284E+01 0.76483336221E+01 0.95859667441E+01 0.11378660318E+02 0.11960756161E+02
 0.10446137593E+02 0.10890248285E+02 0.84807671359E+01 0.60226456395E+01 0.49815895376E+01
 0.60047102312E+01 0.84762989098E+01 0.10941863950E+02 0.12073910322E+02 0.11467991293E+02
 0.97374068499E+01 0.78182903294E+01 0.61409746250E+01 0.48706329387E+01 0.40265354170E+01
 0.35578091479E+01 0.34092141763E+01 0.35573448319E+01 0.40208394071E+01 0.48493407429E+01
 0.60889623377E+01 0.77203872686E+01 0.95859667441E+01 0.11294027846E+02 0.11946426327E+02
 0.11863346467E+02 0.11416384119E+02 0.10040348731E+02 0.87357131412E+01 0.84762909531E+01
 0.95012850719E+01 0.11134039776E+02 0.12267210112E+02 0.12133413251E+02 0.10781175702E+02
 0.89167337525E+01 0.71130144229E+01 0.56184459068E+01 0.45258060429E+01 0.38208531413E+01
 0.34492733371E+01 0.33657303284E+01 0.35572220942E+01 0.40464268184E+01 0.48785947900E+01
 0.60889623377E+01 0.76483336221E+01 0.94053704156E+01 0.11038019999E+02 0.10610065592E+02
 0.11631251104E+02 0.11791725951E+02 0.11341897616E+02 0.10941896224E+02 0.11134093901E+02
 0.11894042845E+02 0.12631593783E+02 0.12642084723E+02 0.11641226849E+02 0.99619693380E+01
 0.81492131805E+01 0.65079550224E+01 0.52009760606E+01 0.42686804112E+01 0.36791523157E+01
 0.33822214706E+01 0.33433794318E+01 0.35571785380E+01 0.40464268184E+01 0.48493407429E+01
 0.59911581284E+01 0.74391612930E+01 0.90599254846E+01 0.85789619417E+01 0.10025271867E+02
 0.11188570024E+02 0.11830973042E+02 0.12073913800E+02 0.12267271381E+02 0.12631691160E+02
 0.13019884975E+02 0.13014459009E+02 0.12282112530E+02 0.10880222527E+02 0.91858104838E+01
 0.75035833033E+01 0.60448386671E+01 0.49107804868E+01 0.41103073027E+01 0.36070056288E+01
 0.33595635350E+01 0.33433794318E+01 0.35572220942E+01 0.40208394071E+01 0.47642858800E+01
 0.58050120606E+01 0.71126748270E+01 0.66985357006E+01 0.80017446199E+01 0.93274795790E+01
 0.10532689324E+02 0.11467980103E+02 0.12133395412E+02 0.12642158661E+02 0.13014577952E+02
 0.13084995636E+02 0.12625839443E+02 0.11580491993E+02 0.10141898219E+02 0.85521655416E+01
 0.70383581452E+01 0.57545273344E+01 0.47622113493E+01 0.40568655996E+01 0.36070056288E+01
 0.33822214706E+01 0.33657303284E+01 0.35573448319E+01 0.39717321952E+01 0.46311055443E+01
 0.55479614435E+01 0.52429132257E+01 0.62320790681E+01 0.73729521594E+01 0.85742687237E+01
 0.97374893002E+01 0.10781159490E+02 0.11641191603E+02 0.12282184550E+02 0.12625960966E+02
 0.12541946964E+02 0.11952429661E+02 0.10911864917E+02 0.95722971505E+01 0.81387456025E+01
 0.67951090470E+01 0.56556948220E+01 0.47622113493E+01 0.41103073027E+01 0.36791523157E+01
 0.34492733371E+01 0.34092141763E+01 0.35574808202E+01 0.39029961512E+01 0.44614444729E+01
 0.42693927180E+01 0.49150995119E+01 0.57499328387E+01 0.67383507512E+01 0.78184241123E+01
 0.89168388143E+01 0.99619542699E+01 0.10880176203E+02 0.11580552142E+02 0.11952541332E+02
 0.11896494014E+02 0.11375264929E+02 0.10449060368E+02 0.92633078617E+01 0.79952902553E+01
 0.67951090470E+01 0.57545273344E+01 0.49107804868E+01 0.42686804112E+01 0.38208531413E+01
 0.35578091479E+01 0.34713835134E+01 0.35575881871E+01 0.38200002082E+01 0.37289723690E+01
 0.40698077207E+01 0.45892141595E+01 0.52863497315E+01 0.61410036161E+01 0.71131440585E+01
 0.81493287743E+01 0.91858026647E+01 0.10141846149E+02 0.10911908953E+02 0.11375362732E+02
 0.11432469422E+02 0.11049937581E+02 0.10284199142E+02 0.92633078617E+01 0.81387456025E+01
 0.70383581452E+01 0.60448386671E+01 0.52009760606E+01 0.45258060429E+01 0.40265354170E+01
 0.37027860693E+01 0.35486680081E+01 0.35576527998E+01 0.35576658123E+01 0.36364640490E+01
 0.38768725081E+01 0.42871339727E+01 0.48705957063E+01 0.56184454763E+01 0.65080640675E+01
 0.75037008150E+01 0.85521665419E+01 0.95722421474E+01 0.10449090856E+02 0.11050025924E+02
 0.11264715656E+02 0.11049937581E+02 0.10449060368E+02 0.95722971505E+01 0.85521655416E+01
 0.75035833033E+01 0.65079550224E+01 0.56184459068E+01 0.48706329387E+01 0.42870950892E+01
 0.38767657019E+01 0.36363793063E+01 0.37289167261E+01 0.35576532172E+01 0.35487637838E+01
 0.37029370864E+01 0.40266210035E+01 0.45257758850E+01 0.52009455453E+01 0.60449199374E+01
 0.70384722015E+01 0.81387531658E+01 0.92632516797E+01 0.10284224450E+02 0.11050025924E+02
 0.11432469422E+02 0.11375264929E+02 0.10911864917E+02 0.10141898219E+02 0.91858104838E+01
 0.81492131805E+01 0.71130144229E+01 0.61409746250E+01 0.52863841160E+01 0.45892157048E+01
 0.40697564172E+01 0.42694105744E+01 0.38199931341E+01 0.35575925675E+01 0.34714789422E+01
 0.35579943446E+01 0.38209843386E+01 0.42686598045E+01 0.49107237678E+01 0.57545850581E+01
 0.67952197611E+01 0.79953003051E+01 0.92632516797E+01 0.10449090856E+02 0.11375362732E+02
 0.11896494014E+02 0.11952429661E+02 0.11580491993E+02 0.10880222527E+02 0.99619693380E+01
 0.89167337525E+01 0.78182903294E+01 0.67382983256E+01 0.57499539951E+01 0.49151345588E+01
 0.52429786775E+01 0.44615439423E+01 0.39030538249E+01 0.35574938022E+01 0.34093024728E+01
 0.34494817904E+01 0.36793180865E+01 0.41102936700E+01 0.47621393150E+01 0.56557435577E+01
 0.67952197611E+01 0.81387531658E+01 0.95722421474E+01 0.10911908953E+02 0.11952541332E+02
 0.12541946964E+02 0.12625839443E+02 0.12282112530E+02 0.11641226849E+02 0.10781175702E+02
 0.97374068499E+01 0.85741561507E+01 0.73728896757E+01 0.62320811726E+01 0.66985192013E+01
 0.55480564555E+01 0.46312904967E+01 0.39718580278E+01 0.35573666018E+01 0.33658086599E+01
 0.33824425161E+01 0.36071901484E+01 0.40568546473E+01 0.47621393150E+01 0.57545850581E+01
 0.70384722015E+01 0.85521665419E+01 0.10141846149E+02 0.11580552142E+02 0.12625960966E+02
 0.13084995636E+02 0.13014459009E+02 0.12642084723E+02 0.12133413251E+02 0.11467991293E+02
 0.10532645750E+02 0.93274182008E+01 0.80016891925E+01 0.85789302032E+01 0.71126442460E+01
 0.58051332339E+01 0.47645456368E+01 0.40210205882E+01 0.35572492829E+01 0.33434509247E+01
 0.33597887035E+01 0.36071901484E+01 0.41102936700E+01 0.49107237678E+01 0.60449199374E+01
 0.75037008150E+01 0.91858026647E+01 0.10880176203E+02 0.12282184550E+02 0.13014577952E+02
 0.13019884975E+02 0.12631593783E+02 0.12267210112E+02 0.12073910322E+02 0.11830976058E+02
 0.11188582530E+02 0.10025288441E+02 0.10610174148E+02 0.90599254599E+01 0.74391195300E+01
 0.59912973310E+01 0.48496509824E+01 0.40466389161E+01 0.35572077059E+01 0.33434509247E+01
 0.33824425161E+01 0.36793180865E+01 0.42686598045E+01 0.52009455453E+01 0.65080640675E+01
 0.81493287743E+01 0.99619542699E+01 0.11641191603E+02 0.12642158661E+02 0.12631691160E+02
 0.11894042845E+02 0.11134039776E+02 0.10941863950E+02 0.11341872664E+02 0.11791721650E+02
 0.11631332411E+02 0.11863497448E+02 0.11038213843E+02 0.94053981151E+01 0.76482839236E+01
 0.60891108635E+01 0.48789230542E+01 0.40466389161E+01 0.35572492829E+01 0.33658086599E+01
 0.34494817904E+01 0.38209843386E+01 0.45257758850E+01 0.56184454763E+01 0.71131440585E+01
 0.89168388143E+01 0.10781159490E+02 0.12133395412E+02 0.12267271381E+02 0.11134093901E+02
 0.95012850719E+01 0.84762989098E+01 0.87357236474E+01 0.10040305875E+02 0.11416375877E+02
 0.10890238095E+02 0.11946632939E+02 0.11294281220E+02 0.95860104364E+01 0.77203348500E+01
 0.60891108635E+01 0.48496509824E+01 0.40210205882E+01 0.35573666018E+01 0.34093024728E+01
 0.35579943446E+01 0.40266210035E+01 0.48705957063E+01 0.61410036161E+01 0.78184241123E+01
 0.97374893002E+01 0.11467980103E+02 0.12073913800E+02 0.10941896224E+02 0.84762909531E+01
 0.60047102312E+01 0.49816703273E+01 0.60227055442E+01 0.84807109989E+01 0.70904551556E+01
 0.10446126352E+02 0.11960993718E+02 0.11378935177E+02 0.95860104364E+01 0.76482839236E+01
 0.59912973310E+01 0.47645456368E+01 0.39718580278E+01 0.35574938022E+01 0.34714789422E+01
 0.37029370864E+01 0.42871339727E+01 0.52863497315E+01 0.67383507512E+01 0.85742687237E+01
 0.10532689324E+02 0.11830973042E+02 0.11341897616E+02 0.87357131412E+01 0.49815895376E+01
 0.19479654835E+01 0.12932365679E+01 0.33938632577E+01 0.14872931623E+01 0.62734294227E+01
 0.10273850328E+02 0.11960993718E+02 0.11294281220E+02 0.94053981151E+01 0.74391195300E+01
 0.58051332339E+01 0.46312904967E+01 0.39030538249E+01 0.35575925675E+01 0.35487637838E+01
 0.38768725081E+01 0.45892141595E+01 0.57499328387E+01 0.73729521594E+01 0.93274795790E+01
 0.11188570024E+02 0.11791725951E+02 0.10040348731E+02 0.60226456395E+01 0.12930843822E+01
 -.18637457226E+01 -.17906141687E+01 -.35466435922E+01 0.79101133387E+00 0.62734294227E+01
 0.10446126352E+02 0.11946632939E+02 0.11038213843E+02 0.90599254599E+01 0.71126442460E+01
 0.55480564555E+01 0.44615439423E+01 0.38199931341E+01 0.35576532172E+01 0.36364640490E+01
 0.40698077207E+01 0.49150995119E+01 0.62320790681E+01 0.80017446199E+01 0.10025271867E+02
 0.11631251104E+02 0.11416384119E+02 0.84807671359E+01 0.33937579527E+01 -.17908229585E+01
 -.45827644480E+01 -.35464448632E+01 -.21102964396E+01 0.22136725654E+01 0.72652438472E+01
 0.10795859344E+02 0.11726765777E+02 0.10515888094E+02 0.85064378879E+01 0.66220005535E+01
 0.51438826711E+01 0.41377837258E+01 0.35593437367E+01 0.33434657388E+01 0.34578543705E+01
 0.39217916274E+01 0.47949740309E+01 0.61329308009E+01 0.79053839628E+01 0.98998906779E+01
 0.11405666252E+02 0.11066080081E+02 0.81303074369E+01 0.33042705212E+01 -.13571849653E+01
 -.21105374899E+01 -.35464427683E+01 -.13569288681E+01 0.33044615302E+01 0.81303005733E+01
 0.11066068994E+02 0.11405778701E+02 0.99000136680E+01 0.79054307890E+01 0.61329682000E+01
 0.47950373060E+01 0.39218211798E+01 0.34578444933E+01 0.33434605228E+01 0.35593064681E+01
 0.41376697998E+01 0.51437796451E+01 0.66219828286E+01 0.85063881507E+01 0.10515704240E+02
 0.11726607374E+02 0.10795899271E+02 0.72653186423E+01 0.22135286177E+01 0.23571918389E+01
 -.12004101150E+01 -.17904264621E+01 0.86222748261E+00 0.53216450072E+01 0.93655716133E+01
 0.11330419866E+02 0.10948668848E+02 0.91955123275E+01 0.72693709145E+01 0.56425419493E+01
 0.44634539981E+01 0.37298914972E+01 0.33807965081E+01 0.33657404817E+01 0.36789982256E+01
 0.43634345624E+01 0.54851569453E+01 0.70730926998E+01 0.90275974405E+01 0.11004267573E+02
 0.11965635513E+02 0.10706366707E+02 0.70648785619E+01 0.76227666998E+01 0.37150279136E+01
 0.11534793514E+01 0.12933779807E+01 0.39954380622E+01 0.77310442848E+01 0.10581079168E+02
 0.11397331783E+02 0.10331845169E+02 0.84551954431E+01 0.66410788693E+01 0.51833423888E+01
 0.41699670114E+01 0.35733861953E+01 0.33327343915E+01 0.34091166491E+01 0.38093184185E+01
 0.45829869636E+01 0.57923613226E+01 0.74489253496E+01 0.94261032013E+01 0.11342757906E+02
 0.12167210647E+02 0.10900500409E+02 0.11352313379E+02 0.87964323510E+01 0.59433300755E+01
 0.43825522241E+01 0.49817681346E+01 0.73097551373E+01 0.99444390215E+01 0.11426006567E+02
 0.11149870511E+02 0.95914409251E+01 0.77245118222E+01 0.60590013901E+01 0.47822193767E+01
 0.39307044807E+01 0.34606781807E+01 0.33164155461E+01 0.34711806162E+01 0.39415962271E+01
 0.47795466027E+01 0.60393354910E+01 0.77156248553E+01 0.96656475888E+01 0.11512579143E+02
 0.12333660498E+02 0.12416085183E+02 0.11912655964E+02 0.10253985105E+02 0.84850323978E+01
 0.77456906663E+01 0.84763353775E+01 0.10112649588E+02 0.11500553299E+02 0.11703792978E+02
 0.10594923919E+02 0.88196571399E+01 0.70469723223E+01 0.55559608388E+01 0.44597820934E+01
 0.37570570475E+01 0.33970933640E+01 0.33327454341E+01 0.35483837352E+01 0.40666919793E+01
 0.49372491511E+01 0.62038150715E+01 0.78474404939E+01 0.97218176492E+01 0.11493248845E+02
 0.11266550189E+02 0.12333434465E+02 0.12364704665E+02 0.11586671931E+02 0.10745625660E+02
 0.10551561364E+02 0.11134012229E+02 0.11946443610E+02 0.12192293414E+02 0.11426551995E+02
 0.98628644364E+01 0.80920537976E+01 0.64643525906E+01 0.51586073548E+01 0.42306763851E+01
 0.36561241533E+01 0.33851881662E+01 0.33808306840E+01 0.36360895361E+01 0.41755737670E+01
 0.50428648920E+01 0.62704404591E+01 0.78307762475E+01 0.95861739573E+01 0.92682641833E+01
 0.10829892477E+02 0.12011805922E+02 0.12507193733E+02 0.12445285302E+02 0.12272921323E+02
 0.12351085281E+02 0.12631514276E+02 0.12692142012E+02 0.12100121761E+02 0.10792981540E+02
 0.91323699621E+01 0.74670608194E+01 0.60141090919E+01 0.48872642729E+01 0.41044134330E+01
 0.36314464792E+01 0.34250069611E+01 0.34579171399E+01 0.37286916260E+01 0.42600980288E+01
 0.50874367723E+01 0.62329965415E+01 0.76664729146E+01 0.73699249300E+01 0.87949002923E+01
 0.10211551450E+02 0.11426538795E+02 0.12232913251E+02 0.12651199925E+02 0.12879154138E+02
 0.13037700103E+02 0.13014342649E+02 0.12555971984E+02 0.11528536011E+02 0.10091329418E+02
 0.85080475163E+01 0.70002241444E+01 0.57268176348E+01 0.47561204238E+01 0.40861510105E+01
 0.36835020584E+01 0.35142392391E+01 0.35594777660E+01 0.38199132152E+01 0.43137190163E+01
 0.50673467153E+01 0.60953616999E+01 0.58709128982E+01 0.69687270605E+01 0.82067020065E+01
 0.94686522745E+01 0.10628138412E+02 0.11571852971E+02 0.12243231138E+02 0.12667603464E+02
 0.12830133886E+02 0.12625742680E+02 0.11955613126E+02 0.10865336049E+02 0.95056809042E+01
 0.80693693578E+01 0.67369303940E+01 0.56241574070E+01 0.47732971972E+01 0.41771509361E+01
 0.38100140488E+01 0.36483183570E+01 0.36792979024E+01 0.39031571218E+01 0.43321656600E+01
 0.49848139796E+01 0.48474788581E+01 0.55803852507E+01 0.64986188860E+01 0.75529201830E+01
 0.86617694113E+01 0.97322003571E+01 0.10682703384E+02 0.11447447669E+02 0.11963056489E+02
 0.12155815932E+02 0.11952368772E+02 0.11329656171E+02 0.10346133855E+02 0.91386712482E+01
 0.78770295380E+01 0.67071194809E+01 0.57175516353E+01 0.49407375944E+01 0.43747773586E+01
 0.40057817681E+01 0.38203088085E+01 0.38097185212E+01 0.39721379425E+01 0.43139584252E+01
 0.42605318688E+01 0.46673144821E+01 0.52489409218E+01 0.59986510562E+01 0.68854384276E+01
 0.78547766694E+01 0.88395544509E+01 0.97702018101E+01 0.10573949923E+02 0.11167310102E+02
 0.11458987308E+02 0.11375254742E+02 0.10897539474E+02 0.10084597135E+02 0.90590486879E+01
 0.79647426389E+01 0.69222868105E+01 0.60070598633E+01 0.52534818877E+01 0.46718188285E+01
 0.42622416857E+01 0.40209027273E+01 0.39420724254E+01 0.40214438165E+01 0.40471174923E+01
 0.41761290149E+01 0.44590690071E+01 0.49028851984E+01 0.55065794522E+01 0.62532922917E+01
 0.71096549357E+01 0.80300405812E+01 0.89578590638E+01 0.98200579322E+01 0.10522532215E+02
 0.10960667850E+02 0.11049960304E+02 0.10762212732E+02 0.10142435654E+02 0.92929622275E+01
 0.83351521644E+01 0.73734711248E+01 0.64799579149E+01 0.56984657890E+01 0.50555500951E+01
 0.45669156581E+01 0.42383968154E+01 0.40671647137E+01 0.41759865602E+01 0.40470897353E+01
 0.40672728407E+01 0.42385202762E+01 0.45669321194E+01 0.50554868811E+01 0.56984661646E+01
 0.64800774829E+01 0.73735863977E+01 0.83351445569E+01 0.92929011062E+01 0.10142458792E+02
 0.10762295323E+02 0.11049963783E+02 0.10960586128E+02 0.10522506245E+02 0.98201282373E+01
 0.89578832936E+01 0.80299230615E+01 0.71095074954E+01 0.62532689156E+01 0.55066529966E+01
 0.49028985461E+01 0.44589538623E+01 0.46672370360E+01 0.42603829627E+01 0.40213528863E+01
 0.39421275984E+01 0.40210459831E+01 0.42623206254E+01 0.46717789757E+01 0.52534470240E+01
 0.60071440000E+01 0.69224060125E+01 0.79647488995E+01 0.90589767892E+01 0.10084603978E+02
 0.10897633123E+02 0.11375284267E+02 0.11458910155E+02 0.11167266393E+02 0.10574013838E+02
 0.97702446385E+01 0.88394517013E+01 0.78546071619E+01 0.68853645411E+01 0.59986928831E+01
 0.52489727329E+01 0.55804212440E+01 0.48474421569E+01 0.43138320386E+01 0.39720210962E+01
 0.38097438495E+01 0.38204687629E+01 0.40059031545E+01 0.43747508540E+01 0.49406794393E+01
 0.57176099451E+01 0.67072226451E+01 0.78770181724E+01 0.91385884990E+01 0.10346156836E+02
 0.11329779798E+02 0.11952405488E+02 0.12155715279E+02 0.11962984556E+02 0.11447498894E+02
 0.10682744254E+02 0.97320914521E+01 0.86615762680E+01 0.75528026949E+01 0.64986229382E+01
 0.69686656341E+01 0.58709405505E+01 0.49848529225E+01 0.43321111142E+01 0.39030390624E+01
 0.36792920065E+01 0.36484877784E+01 0.38101733896E+01 0.41771309581E+01 0.47732051762E+01
 0.56241806984E+01 0.67370200545E+01 0.80693593623E+01 0.95056078539E+01 0.10865371685E+02
 0.11955740409E+02 0.12625764786E+02 0.12830001985E+02 0.12667481299E+02 0.12243218103E+02
 0.11571853904E+02 0.10628043021E+02 0.94684844537E+01 0.82065547935E+01 0.87947412466E+01
 0.73698186686E+01 0.60954032050E+01 0.50674682353E+01 0.43137360981E+01 0.38198136316E+01
 0.35594754522E+01 0.35144243282E+01 0.36836619894E+01 0.40861039222E+01 0.47560086135E+01
 0.57268470240E+01 0.70003218007E+01 0.85080325134E+01 0.10091254304E+02 0.11528573614E+02
 0.12556079626E+02 0.13014318464E+02 0.13037505974E+02 0.12878957295E+02 0.12651112519E+02
 0.12232885431E+02 0.11426484084E+02 0.10211433919E+02 0.10829874563E+02 0.92681372732E+01
 0.76663367782E+01 0.62330426150E+01 0.50876329207E+01 0.42602011969E+01 0.37286383741E+01
 0.34579252277E+01 0.34251830996E+01 0.36315866978E+01 0.41043581180E+01 0.48871677250E+01
 0.60141538059E+01 0.74671544245E+01 0.91323507861E+01 0.10792907782E+02 0.12100126934E+02
 0.12692167523E+02 0.12631408517E+02 0.12350853309E+02 0.12272690014E+02 0.12445132752E+02
 0.12507131962E+02 0.12011812538E+02 0.12333532323E+02 0.11266638451E+02 0.95860799555E+01
 0.78306314365E+01 0.62705166557E+01 0.50431308013E+01 0.41757344058E+01 0.36360677198E+01
 0.33808601644E+01 0.33853675344E+01 0.36562447618E+01 0.42306108276E+01 0.51585306241E+01
 0.64644195263E+01 0.80921472887E+01 0.98628299669E+01 0.11426443603E+02 0.12192219221E+02
 0.11946369878E+02 0.11133862852E+02 0.10551346629E+02 0.10745394260E+02 0.11586476973E+02
 0.12364641538E+02 0.11912595648E+02 0.12416243730E+02 0.11493423629E+02 0.97217808102E+01
 0.78473249010E+01 0.62039154750E+01 0.49375375405E+01 0.40668801238E+01 0.35484055365E+01
 0.33328070097E+01 0.33972543650E+01 0.37571374972E+01 0.44597205743E+01 0.55559241747E+01
 0.70470463048E+01 0.88197104950E+01 0.10594853951E+02 0.11703657262E+02 0.11500411445E+02
 0.10112489372E+02 0.84761692680E+01 0.77455465989E+01 0.84848665977E+01 0.10253794931E+02
 0.87962475490E+01 0.11352249549E+02 0.12333866060E+02 0.11512819629E+02 0.96656544994E+01
 0.77155365593E+01 0.60394555301E+01 0.47798403133E+01 0.39417871570E+01 0.34712177504E+01
 0.33164823485E+01 0.34608117048E+01 0.39307591702E+01 0.47821682679E+01 0.60589762235E+01
 0.77245521755E+01 0.95914495553E+01 0.11149795268E+02 0.11425865917E+02 0.99442358230E+01
 0.73095299862E+01 0.49816412189E+01 0.43825356945E+01 0.59432547244E+01 0.37150413957E+01
 0.76226147665E+01 0.10900443198E+02 0.12167418650E+02 0.11343004932E+02 0.94261411298E+01
 0.74488877151E+01 0.57924971180E+01 0.45832376673E+01 0.38094648758E+01 0.34091556749E+01
 0.33328067406E+01 0.35734810287E+01 0.41699757052E+01 0.51832881425E+01 0.66410594949E+01
 0.84551985696E+01 0.10331808668E+02 0.11397259196E+02 0.10580961481E+02 0.77308262465E+01
 0.39951938155E+01 0.12933039793E+01 0.11535743439E+01 -.12002164631E+01 0.23572907122E+01
 0.70647589516E+01 0.10706301759E+02 0.11965820101E+02 0.11004502924E+02 0.90276581445E+01
 0.70730859594E+01 0.54852742310E+01 0.43636203977E+01 0.36790995833E+01 0.33657720015E+01
 0.33808406703E+01 0.37299207965E+01 0.44634256832E+01 0.56425039823E+01 0.72693452189E+01
 0.91954479169E+01 0.10948584063E+02 0.11330387843E+02 0.93655210663E+01 0.53214337469E+01
 0.86196345492E+00 -.17904612236E+01 0.14879788957E+01 0.23577989465E+01 0.54754199365E+01
 0.91778090611E+01 0.11646565057E+02 0.11988249792E+02 0.10594110206E+02 0.86004990833E+01
 0.67456771899E+01 0.52776669902E+01 0.42587847612E+01 0.36481739173E+01 0.33822018889E+01
 0.34248959979E+01 0.37874792876E+01 0.45215313210E+01 0.56841511441E+01 0.72718788770E+01
 0.91388135990E+01 0.10865026362E+02 0.11406556634E+02 0.99343910811E+01 0.67406946334E+01
 0.33046908843E+01 0.22139679135E+01 0.79175405663E+00 0.22142229748E+01 0.56898249288E+01
 0.93653604268E+01 0.11503416721E+02 0.11471440831E+02 0.98988006426E+01 0.79466254957E+01
 0.62086052381E+01 0.48831221451E+01 0.40021018545E+01 0.35141049857E+01 0.33595482486E+01
 0.35140761863E+01 0.40020264321E+01 0.48830551443E+01 0.62085882339E+01 0.79465698009E+01
 0.98986511122E+01 0.11471355181E+02 0.11503522824E+02 0.93654665841E+01 0.56896783144E+01
 0.54753499026E+01 0.23575918739E+01 0.14879977735E+01 0.33049614743E+01 0.67409036305E+01
 0.99343997833E+01 0.11406537271E+02 0.10865110271E+02 0.91389244951E+01 0.72719427236E+01
 0.56842047110E+01 0.45215872633E+01 0.37875015867E+01 0.34248989017E+01 0.33822054377E+01
 0.36481198885E+01 0.42586610050E+01 0.52775948364E+01 0.67457045805E+01 0.86004657555E+01
 0.10593936554E+02 0.11988153479E+02 0.11646722478E+02 0.91780022555E+01 0.95094341768E+01
 0.61997013287E+01 0.37153195332E+01 0.33944181500E+01 0.53220279969E+01 0.82910763738E+01
 0.10621556407E+02 0.11225231492E+02 0.10163100915E+02 0.83662972226E+01 0.66205731758E+01
 0.52054251945E+01 0.42139881653E+01 0.36263986251E+01 0.33851468538E+01 0.34492556937E+01
 0.38201143090E+01 0.45423833844E+01 0.56791762413E+01 0.72567332741E+01 0.91841983139E+01
 0.11174674087E+02 0.12427394354E+02 0.11928096529E+02 0.12351549625E+02 0.10314557992E+02
 0.76905876196E+01 0.59434837804E+01 0.60230589021E+01 0.77312611386E+01 0.98844320904E+01
 0.11138996709E+02 0.10855815173E+02 0.93925712346E+01 0.76234730221E+01 0.60293955509E+01
 0.47981643698E+01 0.39758998470E+01 0.35267220745E+01 0.33971439930E+01 0.35577905753E+01
 0.40207252721E+01 0.48349935424E+01 0.60581825309E+01 0.76999767617E+01 0.96473275990E+01
 0.11596998768E+02 0.12779373984E+02 0.12999763600E+02 0.12821312549E+02 0.11375997192E+02
 0.95565573773E+01 0.84850390395E+01 0.87358377355E+01 0.99444555625E+01 0.11099670119E+02
 0.11281524017E+02 0.10275577992E+02 0.86213884559E+01 0.69480137928E+01 0.55279554214E+01
 0.44814559641E+01 0.38178519093E+01 0.34930496158E+01 0.34608264015E+01 0.37027759752E+01
 0.42382581871E+01 0.51159117871E+01 0.63837660008E+01 0.80353667435E+01 0.99446873320E+01
 0.11819847478E+02 0.11808607744E+02 0.13019146785E+02 0.13173899760E+02 0.12378275770E+02
 0.11314961764E+02 0.10745483674E+02 0.10941732897E+02 0.11500397869E+02 0.11683040780E+02
 0.10998398680E+02 0.95620870433E+01 0.79072592686E+01 0.63739187346E+01 0.51392098756E+01
 0.42683013469E+01 0.37459838541E+01 0.35268787007E+01 0.35736371666E+01 0.38767701350E+01
 0.44588530229E+01 0.53636775726E+01 0.66273027532E+01 0.82299739466E+01 0.10043439186E+02
 0.99292300626E+01 0.11546546610E+02 0.12771896513E+02 0.13241130944E+02 0.13017720899E+02
 0.12547198652E+02 0.12272675652E+02 0.12266890364E+02 0.12192010182E+02 0.11615130732E+02
 0.10404450798E+02 0.88532448167E+01 0.72945389166E+01 0.59316771926E+01 0.48804858625E+01
 0.41668449918E+01 0.37627421016E+01 0.36266774274E+01 0.37302073344E+01 0.40697974520E+01
 0.46671679435E+01 0.55579979929E+01 0.67660944385E+01 0.82632075015E+01 0.81305459987E+01
 0.96095547175E+01 0.11048610091E+02 0.12231875798E+02 0.12919240074E+02 0.13107232223E+02
 0.13025714189E+02 0.12878848056E+02 0.12641654003E+02 0.12099810754E+02 0.11092442065E+02
 0.97241923273E+01 0.82372579536E+01 0.68285445088E+01 0.56475136495E+01 0.47642611156E+01
 0.41812209972E+01 0.38672383971E+01 0.37878211451E+01 0.39221872249E+01 0.42695041406E+01
 0.48473996631E+01 0.56820275516E+01 0.67867593188E+01 0.66873704462E+01 0.78445090369E+01
 0.91132667303E+01 0.10360385912E+02 0.11438572979E+02 0.12216019595E+02 0.12637284783E+02
 0.12769796236E+02 0.12667322754E+02 0.12281710635E+02 0.11528271459E+02 0.10432936846E+02
 0.91299847986E+01 0.77823329131E+01 0.65503678736E+01 0.55420340903E+01 0.47983777465E+01
 0.43119346181E+01 0.40553349274E+01 0.40023989518E+01 0.41381435431E+01 0.44616884632E+01
 0.49848096723E+01 0.57246344781E+01 0.56819195728E+01 0.64777386274E+01 0.74327849954E+01
 0.84864328312E+01 0.95429085981E+01 0.10495392016E+02 0.11256862569E+02 0.11772550866E+02
 0.12015421921E+02 0.11962854964E+02 0.11580198767E+02 0.10865159052E+02 0.98725005757E+01
 0.87179573330E+01 0.75479491132E+01 0.64917572993E+01 0.56287535731E+01 0.49857188677E+01
 0.45555763537E+01 0.43192033907E+01 0.42589612613E+01 0.43639149374E+01 0.46314696862E+01
 0.50674283839E+01 0.50875955730E+01 0.55578232723E+01 0.61778837865E+01 0.69338384699E+01
 0.77854163851E+01 0.86678563214E+01 0.95059700240E+01 0.10230265688E+02 0.10782864258E+02
 0.11111885256E+02 0.11167209929E+02 0.10911712643E+02 0.10346048183E+02 0.95273499107E+01
 0.85624449747E+01 0.75756668877E+01 0.66712635076E+01 0.59123406226E+01 0.53229917323E+01
 0.49038040231E+01 0.46467179535E+01 0.45425515277E+01 0.45834168706E+01 0.47647285547E+01
 0.48498129272E+01 0.50431147420E+01 0.53635247139E+01 0.58148886343E+01 0.63912040842E+01
 0.70691288443E+01 0.78084169603E+01 0.85588397716E+01 0.92663291243E+01 0.98729029568E+01
 0.10313839085E+02 0.10522523128E+02 0.10449018452E+02 0.10084556107E+02 0.94743010622E+01
 0.87064867335E+01 0.78832050484E+01 0.70909355017E+01 0.63862890699E+01 0.57988961731E+01
 0.53420344925E+01 0.50208232901E+01 0.48349828992E+01 0.47798620372E+01 0.49374236261E+01
 0.48790308521E+01 0.49375582653E+01 0.51158387892E+01 0.54191673024E+01 0.58478955992E+01
 0.63919636640E+01 0.70304506986E+01 0.77333610749E+01 0.84603200333E+01 0.91552095256E+01
 0.97435887640E+01 0.10142485650E+02 0.10284189444E+02 0.10142411660E+02 0.97435800153E+01
 0.91552974132E+01 0.84603586345E+01 0.77332614077E+01 0.70303377325E+01 0.63919985533E+01
 0.58480382321E+01 0.54192285984E+01 0.51157379459E+01 0.53634137227E+01 0.50428990172E+01
 0.48496862128E+01 0.47799019435E+01 0.48350715526E+01 0.50208004989E+01 0.53419088239E+01
 0.57988364050E+01 0.63863807428E+01 0.70910484882E+01 0.78831847300E+01 0.87063892326E+01
 0.94742918584E+01 0.10084636188E+02 0.10449035085E+02 0.10522444963E+02 0.10313818020E+02
 0.98730093174E+01 0.92664124116E+01 0.85587598105E+01 0.78082727566E+01 0.70691182152E+01
 0.63913349202E+01 0.58149667575E+01 0.61779412248E+01 0.55577212164E+01 0.50873518382E+01
 0.47645070573E+01 0.45833600536E+01 0.45426246404E+01 0.46467481316E+01 0.49037141863E+01
 0.53229110573E+01 0.59123959349E+01 0.66713627233E+01 0.75756404144E+01 0.85623305583E+01
 0.95273307651E+01 0.10346141760E+02 0.10911748318E+02 0.11167134594E+02 0.11111860440E+02
 0.10782980786E+02 0.10230370693E+02 0.95058993076E+01 0.86676851608E+01 0.77853432983E+01
 0.69339065068E+01 0.74327584649E+01 0.64777662195E+01 0.56818557332E+01 0.50672007345E+01
 0.46311897698E+01 0.43637901532E+01 0.42590361338E+01 0.43192801128E+01 0.45554989931E+01
 0.49856028918E+01 0.56287732806E+01 0.64918400225E+01 0.75479060358E+01 0.87178266760E+01
 0.98724901823E+01 0.10865282609E+02 0.11580251771E+02 0.11962763312E+02 0.12015357518E+02
 0.11772631279E+02 0.11256955310E+02 0.10495326576E+02 0.95427177875E+01 0.84862819759E+01
 0.91130657605E+01 0.78443860382E+01 0.66873580582E+01 0.57246218760E+01 0.49846415942E+01
 0.44614073972E+01 0.41379915941E+01 0.40024751680E+01 0.40554276152E+01 0.43118502461E+01
 0.47982355480E+01 0.55420316784E+01 0.65504337463E+01 0.77822788997E+01 0.91298637581E+01
 0.10432950650E+02 0.11528401694E+02 0.12281732458E+02 0.12667174257E+02 0.12769657162E+02
 0.12637279946E+02 0.12216057394E+02 0.11438512977E+02 0.10360211644E+02 0.11048502825E+02
 0.96093308784E+01 0.81303346057E+01 0.67867184709E+01 0.56820856801E+01 0.48473164132E+01
 0.42692558416E+01 0.39220401081E+01 0.37879062315E+01 0.38673318571E+01 0.41811185748E+01
 0.47641030215E+01 0.56475095144E+01 0.68286134365E+01 0.82372101881E+01 0.97240805389E+01
 0.11092442749E+02 0.12099886376E+02 0.12641605185E+02 0.12878628603E+02 0.13025478504E+02
 0.13107107531E+02 0.12919213815E+02 0.12231858725E+02 0.12771939762E+02 0.11546528885E+02
 0.99290193218E+01 0.82629513103E+01 0.67660479270E+01 0.55581186191E+01 0.46671648255E+01
 0.40696111510E+01 0.37301003355E+01 0.36267710714E+01 0.37628129618E+01 0.41667261811E+01
 0.48803446793E+01 0.59316965217E+01 0.72946075726E+01 0.88531860778E+01 0.10404321328E+02
 0.11615072449E+02 0.12191982168E+02 0.12266749192E+02 0.12272402271E+02 0.12546897500E+02