    2    2   15    1
  0.1529437E+02  0.3691622E-09  0.3691622E-09  0.3691622E-09  0.5000000E-15
  1.000000000000000E-004
  CAR 
 unknown system                          
      8     99      8
 
  0.5000000E-01  0.5000000E-01  0.5000000E-01  0.8000000E-02
    1       -4.272720   1.000000
    2        4.741397   1.000000
    3        6.612534   1.000000
    4        7.761313   1.000000
    5       11.609549   0.000000
    6       15.145972   0.000000
    7       16.177047   0.000000
    8       17.015905   0.000000
 
  0.1500000E+00  0.5000000E-01  0.5000000E-01  0.1600000E-01
    1       -3.428226   1.000000
    2        4.467526   1.000000
    3        6.876480   1.000000
    4        9.171322   0.341248
    5       12.682054   0.000000
    6       13.121236   0.000000
    7       13.501761   0.000000
    8       15.432584   0.000000
 
  0.2500000E+00  0.5000000E-01  0.5000000E-01  0.1600000E-01
    1       -2.030158   1.000000
    2        4.676422   1.000000
    3        7.195366   1.000000
    4        8.622324   0.999743
    5       10.743603   0.000000
    6       12.048335   0.000000
    7       13.782516   0.000000
    8       14.471937   0.000000
 
  0.3500000E+00  0.5000000E-01  0.5000000E-01  0.1600000E-01
    1       -0.094876   1.000000
    2        5.126314   1.000000
    3        5.627400   1.000000
    4        7.616713   1.000000
    5        8.926184   0.907303
    6       11.900790   0.000000
    7       13.775367   0.000000
    8       14.237579   0.000000
 
  0.4500000E+00  0.5000000E-01  0.5000000E-01  0.8000000E-02
    1        2.103715   1.000000
    2        2.651508   1.000000
    3        6.528639   1.000000
    4        6.684783   1.000000
    5        8.835699   0.975244
    6       10.887901   0.000000
    7       13.586316   0.000000
    8       14.655625   0.000000
 
 -0.5000000E-01  0.5000000E-01  0.5000000E-01  0.4000000E-02
    1       -4.555043   1.000000
    2        5.178951   1.000000
    3        6.065487   1.000000
    4        7.433828   1.000000
    5       11.012259   0.000000
    6       15.610284   0.000000
    7       17.428760   0.000000
    8       18.228904   0.000000
 
  0.1500000E+00  0.1500000E+00  0.5000000E-01  0.8000000E-02
    1       -2.147313   1.000000
    2        4.639142   1.000000
    3        8.179219   1.000000
    4        9.107140   0.517857
    5       10.192206   0.000000
    6       11.032701   0.000000
    7       14.598848   0.000000
    8       14.605399   0.000000
 
  0.2500000E+00  0.1500000E+00  0.5000000E-01  0.1600000E-01
    1       -0.325860   1.000000
    2        5.234077   1.000000
    3        6.222854   1.000000
    4        7.151127   1.000000
    5        9.826464   0.000000
    6       12.457827   0.000000
    7       12.877406   0.000000
    8       13.774202   0.000000
 
  0.3500000E+00  0.1500000E+00  0.5000000E-01  0.1600000E-01
    1        1.971374   1.000000
    2        3.226729   1.000000
    3        5.356355   1.000000
    4        6.389582   1.000000
    5        9.907379   0.000000
    6       11.855332   0.000000
    7       12.876404   0.000000
    8       15.357966   0.000000
 
  0.4500000E+00  0.1500000E+00  0.5000000E-01  0.1600000E-01
    1        0.595955   1.000000
    2        3.911210   1.000000
    3        4.975164   1.000000
    4        7.660214   1.000000
    5        9.247583   0.171488
    6       12.251259   0.000000
    7       13.525103   0.000000
    8       15.234173   0.000000
 
 -0.4500000E+00  0.1500000E+00  0.5000000E-01  0.1600000E-01
    1       -1.444428   1.000000
    2        3.103927   1.000000
    3        7.590694   1.000000
    4        8.234626   1.000000
    5       10.388515   0.000000
    6       12.610510   0.000000
    7       12.884675   0.000000
    8       15.371158   0.000000
 
 -0.3500000E+00  0.1500000E+00  0.5000000E-01  0.1600000E-01
    1       -2.955080   1.000000
    2        2.775209   1.000000
    3        7.293444   1.000000
    4        9.860084   0.000000
    5       12.047409   0.000000
    6       12.561326   0.000000
    7       14.118049   0.000000
    8       15.597451   0.000000
 
 -0.2500000E+00  0.1500000E+00  0.5000000E-01  0.8000000E-02
    1       -3.916031   1.000000
    2        2.965149   1.000000
    3        6.945325   1.000000
    4        8.592291   0.999886
    5       13.316328   0.000000
    6       13.599891   0.000000
    7       15.045580   0.000000
    8       16.527351   0.000000
 
 -0.1500000E+00  0.1500000E+00  0.5000000E-01  0.8000000E-02
    1       -4.316993   1.000000
    2        3.630730   1.000000
    3        6.101540   1.000000
    4        8.496662   0.999994
    5       12.323979   0.000000
    6       13.791782   0.000000
    7       16.322496   0.000000
    8       19.216705   0.000000
 
 -0.5000000E-01  0.1500000E+00  0.5000000E-01  0.8000000E-02
    1       -4.153836   1.000000
    2        4.417754   1.000000
    3        5.704159   1.000000
    4        8.879482   0.950994
    5       12.138131   0.000000
    6       13.905447   0.000000
    7       16.016031   0.000000
    8       17.538266   0.000000
 
  0.2500000E+00  0.2500000E+00  0.5000000E-01  0.8000000E-02
    1        1.877071   1.000000
    2        4.151419   1.000000
    3        4.232946   1.000000
    4        6.311353   1.000000
    5       10.558541   0.000000
    6       11.745668   0.000000
    7       13.623354   0.000000
    8       14.233715   0.000000
 
  0.3500000E+00  0.2500000E+00  0.5000000E-01  0.1600000E-01
    1        1.507438   1.000000
    2        2.626029   1.000000
    3        4.730489   1.000000
    4        7.636090   1.000000
    5        9.838861   0.000000
    6       11.233512   0.000000
    7       14.915511   0.000000
    8       15.817785   0.000000
 
  0.4500000E+00  0.2500000E+00  0.5000000E-01  0.1600000E-01
    1       -0.628989   1.000000
    2        1.662260   1.000000
    3        7.762149   1.000000
    4        8.389122   1.000000
    5        9.983132   0.000000
    6       11.725437   0.000000
    7       13.478228   0.000000
    8       15.468759   0.000000
 
 -0.4500000E+00  0.2500000E+00  0.5000000E-01  0.1600000E-01
    1       -2.248213   1.000000
    2        1.216406   1.000000
    3        7.936710   1.000000
    4       10.371025   0.000000
    5       11.106651   0.000000
    6       12.162201   0.000000
    7       13.517992   0.000000
    8       14.513706   0.000000
 
 -0.3500000E+00  0.2500000E+00  0.5000000E-01  0.8000000E-02
    1       -3.323484   1.000000
    2        1.306969   1.000000
    3        7.500011   1.000000
    4        9.329569   0.063252
    5       11.874104   0.000000
    6       13.692937   0.000000
    7       15.548437   0.000000
    8       16.136620   0.000000
 
 -0.2500000E+00  0.2500000E+00  0.5000000E-01  0.8000000E-02
    1       -3.841874   1.000000
    2        1.921085   1.000000
    3        6.531067   1.000000
    4        9.271965   0.131205
    5       12.075788   0.000000
    6       14.515141   0.000000
    7       14.828156   0.000000
    8       19.091559   0.000000
 
 -0.1500000E+00  0.2500000E+00  0.5000000E-01  0.1600000E-01
    1       -3.797716   1.000000
    2        3.004466   1.000000
    3        5.677963   1.000000
    4        9.941177   0.000000
    5       12.199345   0.000000
    6       13.736546   0.000000
    7       15.400565   0.000000
    8       16.989834   0.000000
 
 -0.5000000E-01  0.2500000E+00  0.5000000E-01  0.8000000E-02
    1       -3.191779   1.000000
    2        4.184735   1.000000
    3        5.658380   1.000000
    4       10.349565   0.000000
    5       12.381898   0.000000
    6       12.652780   0.000000
    7       13.903263   0.000000
    8       15.094993   0.000000
 
  0.3500000E+00  0.3500000E+00  0.5000000E-01  0.8000000E-02
    1        0.407225   1.000000
    2        0.415654   1.000000
    3        7.705977   1.000000
    4        8.775302   0.991604
    5        9.683485   0.000028
    6       11.312151   0.000000
    7       14.097689   0.000000
    8       14.875896   0.000000
 
  0.4500000E+00  0.3500000E+00  0.5000000E-01  0.1600000E-01
    1       -1.312139   1.000000
    2       -0.152892   1.000000
    3        8.777973   0.991162
    4        9.773992   0.000002
    5       10.990206   0.000000
    6       12.197871   0.000000
    7       13.239187   0.000000
    8       13.547960   0.000000
 
 -0.4500000E+00  0.3500000E+00  0.5000000E-01  0.8000000E-02
    1       -2.498177   1.000000
    2       -0.172056   1.000000
    3        8.278262   1.000000
    4       10.174173   0.000000
    5       10.487072   0.000000
    6       12.379388   0.000000
    7       15.901539   0.000000
    8       15.904346   0.000000
 
 -0.3500000E+00  0.3500000E+00  0.5000000E-01  0.8000000E-02
    1       -3.131818   1.000000
    2        0.351042   1.000000
    3        7.200954   1.000000
    4       10.067048   0.000000
    5       10.548342   0.000000
    6       13.404693   0.000000
    7       17.073041   0.000000
    8       18.865093   0.000000
 
 -0.2500000E+00  0.3500000E+00  0.5000000E-01  0.1600000E-01
    1       -3.206104   1.000000
    2        1.398369   1.000000
    3        6.184267   1.000000
    4       10.580320   0.000000
    5       10.779011   0.000000
    6       14.514920   0.000000
    7       15.850923   0.000000
    8       16.279782   0.000000
 
 -0.1500000E+00  0.3500000E+00  0.5000000E-01  0.1600000E-01
    1       -2.720208   1.000000
    2        2.903589   1.000000
    3        5.658000   1.000000
    4       10.522814   0.000000
    5       11.144842   0.000000
    6       12.755013   0.000000
    7       14.664314   0.000000
    8       15.905098   0.000000
 
 -0.5000000E-01  0.3500000E+00  0.5000000E-01  0.8000000E-02
    1       -1.679268   1.000000
    2        4.476057   1.000000
    3        6.031292   1.000000
    4        7.977245   1.000000
    5       10.952916   0.000000
    6       13.022948   0.000000
    7       13.813317   0.000000
    8       13.843025   0.000000
 
  0.4500000E+00  0.4500000E+00  0.5000000E-01  0.4000000E-02
    1       -1.445337   1.000000
    2       -1.445335   1.000000
    3        9.266801   0.139139
    4        9.266807   0.139130
    5       11.200210   0.000000
    6       11.200218   0.000000
    7       15.830868   0.000000
    8       15.830921   0.000000
 
 -0.4500000E+00  0.4500000E+00  0.5000000E-01  0.8000000E-02
    1       -2.191725   1.000000
    2       -1.027424   1.000000
    3        8.095767   1.000000
    4        9.215519   0.235277
    5       11.005950   0.000000
    6       12.119996   0.000000
    7       18.630095   0.000000
    8       18.708538   0.000000
 
 -0.3500000E+00  0.4500000E+00  0.5000000E-01  0.1600000E-01
    1       -2.382571   1.000000
    2       -0.065858   1.000000
    3        6.954592   1.000000
    4        9.174380   0.333351
    5       11.594554   0.000000
    6       13.605945   0.000000
    7       15.412804   0.000000
    8       16.870004   0.000000
 
 -0.2500000E+00  0.4500000E+00  0.5000000E-01  0.1600000E-01
    1       -2.016186   1.000000
    2        1.413933   1.000000
    3        6.245777   1.000000
    4        9.451814   0.008368
    5       10.621747   0.000000
    6       13.357197   0.000000
    7       14.414609   0.000000
    8       16.409759   0.000000
 
 -0.1500000E+00  0.4500000E+00  0.5000000E-01  0.1600000E-01
    1       -1.096763   1.000000
    2        3.330795   1.000000
    3        6.088418   1.000000
    4        7.480058   1.000000
    5       10.082412   0.000000
    6       12.485895   0.000000
    7       14.466176   0.000000
    8       15.243524   0.000000
 
 -0.5000000E-01  0.4500000E+00  0.5000000E-01  0.8000000E-02
    1        0.363665   1.000000
    2        4.575998   1.000000
    3        5.454386   1.000000
    4        6.816333   1.000000
    5        9.289699   0.106361
    6       11.866988   0.000000
    7       12.469729   0.000000
    8       15.664318   0.000000
 
 -0.4500000E+00 -0.4500000E+00  0.5000000E-01  0.8000000E-02
    1       -1.333681   1.000000
    2       -1.331858   1.000000
    3        7.946232   1.000000
    4        7.969692   1.000000
    5       12.379666   0.000000
    6       12.753426   0.000000
    7       15.237012   0.000000
    8       16.840722   0.000000
 
 -0.3500000E+00 -0.4500000E+00  0.5000000E-01  0.1600000E-01
    1       -1.084869   1.000000
    2        0.064984   1.000000
    3        7.110826   1.000000
    4        8.193765   1.000000
    5       10.459465   0.000000
    6       14.132355   0.000000
    7       14.258790   0.000000
    8       15.415235   0.000000
 
 -0.2500000E+00 -0.4500000E+00  0.5000000E-01  0.1600000E-01
    1       -0.287086   1.000000
    2        1.967416   1.000000
    3        6.694500   1.000000
    4        7.221911   1.000000
    5        8.895119   0.938705
    6       12.143352   0.000000
    7       15.432883   0.000000
    8       16.541417   0.000000
 
 -0.1500000E+00 -0.4500000E+00  0.5000000E-01  0.1600000E-01
    1        1.045482   1.000000
    2        3.997003   1.000000
    3        4.575827   1.000000
    4        6.972443   1.000000
    5        9.174288   0.333586
    6       11.254906   0.000000
    7       12.961321   0.000000
    8       16.755705   0.000000
 
 -0.5000000E-01 -0.4500000E+00  0.5000000E-01  0.8000000E-02
    1        1.742716   1.000000
    2        3.006547   1.000000
    3        6.603874   1.000000
    4        7.722646   1.000000
    5        7.916704   1.000000
    6       10.670237   0.000000
    7       12.524646   0.000000
    8       15.638491   0.000000
 
 -0.3500000E+00 -0.3500000E+00  0.5000000E-01  0.8000000E-02
    1        0.732886   1.000000
    2        0.750257   1.000000
    3        6.941894   1.000000
    4        7.638547   1.000000
    5        7.941805   1.000000
    6       12.028787   0.000000
    7       16.018937   0.000000
    8       17.020140   0.000000
 
 -0.2500000E+00 -0.3500000E+00  0.5000000E-01  0.1600000E-01
    1        1.937858   1.000000
    2        3.006993   1.000000
    3        4.115758   1.000000
    4        7.617141   1.000000
    5        8.592900   0.999884
    6       10.639582   0.000000
    7       14.542270   0.000000
    8       16.308725   0.000000
 
 -0.1500000E+00 -0.3500000E+00  0.5000000E-01  0.1600000E-01
    1        1.427240   1.000000
    2        3.754205   1.000000
    3        5.801941   1.000000
    4        7.513121   1.000000
    5        8.718759   0.997373
    6       11.046297   0.000000
    7       11.788590   0.000000
    8       15.166009   0.000000
 
 -0.5000000E-01 -0.3500000E+00  0.5000000E-01  0.8000000E-02
    1       -0.557742   1.000000
    2        5.901473   1.000000
    3        6.672143   1.000000
    4        7.744024   1.000000
    5        8.685005   0.998776
    6       11.301457   0.000000
    7       12.839144   0.000000
    8       14.124832   0.000000
 
 -0.2500000E+00 -0.2500000E+00  0.5000000E-01  0.8000000E-02
    1        1.318025   1.000000
    2        4.690188   1.000000
    3        4.738841   1.000000
    4        7.519961   1.000000
    5        9.182296   0.313250
    6       10.502673   0.000000
    7       12.935973   0.000000
    8       13.737422   0.000000
 
 -0.1500000E+00 -0.2500000E+00  0.5000000E-01  0.1600000E-01
    1       -0.790884   1.000000
    2        6.664933   1.000000
    3        6.943586   1.000000
    4        7.623085   1.000000
    5        9.153011   0.389901
    6       11.638629   0.000000
    7       11.715284   0.000000
    8       12.869266   0.000000
 
 -0.5000000E-01 -0.2500000E+00  0.5000000E-01  0.8000000E-02
    1       -2.382870   1.000000
    2        6.041267   1.000000
    3        7.225093   1.000000
    4        9.031612   0.718653
    5       10.709124   0.000000
    6       11.516891   0.000000
    7       13.093256   0.000000
    8       14.432194   0.000000
 
 -0.1500000E+00 -0.1500000E+00  0.5000000E-01  0.8000000E-02
    1       -2.500696   1.000000
    2        6.349182   1.000000
    3        7.987940   1.000000
    4        8.896386   0.937612
    5       10.516183   0.000000
    6       11.076236   0.000000
    7       13.163029   0.000000
    8       13.861136   0.000000
 
 -0.5000000E-01 -0.1500000E+00  0.5000000E-01  0.8000000E-02
    1       -3.665367   1.000000
    2        5.993882   1.000000
    3        6.836504   1.000000
    4        8.172586   1.000000
    5       11.895452   0.000000
    6       13.408804   0.000000
    7       13.775764   0.000000
    8       16.155473   0.000000
 
 -0.5000000E-01 -0.5000000E-01  0.5000000E-01  0.2000000E-02
    1       -4.391831   1.000000
    2        6.420068   1.000000
    3        6.501272   1.000000
    4        6.501298   1.000000
    5       10.885758   0.000000
    6       16.446392   0.000000
    7       16.603775   0.000000
    8       17.337354   0.000000
 
  0.1500000E+00  0.1500000E+00  0.1500000E+00  0.8000000E-02
    1       -1.560579   1.000000
    2        3.014700   1.000000
    3        8.367299   1.000000
    4        8.904925   0.929847
    5       10.142211   0.000000
    6       11.374455   0.000000
    7       14.097322   0.000000
    8       14.769984   0.000000
 
  0.2500000E+00  0.1500000E+00  0.1500000E+00  0.1600000E-01
    1        0.368579   1.000000
    2        3.749484   1.000000
    3        5.796381   1.000000
    4        6.796765   1.000000
    5       10.579188   0.000000
    6       13.260212   0.000000
    7       13.742213   0.000000
    8       14.523833   0.000000
 
  0.3500000E+00  0.1500000E+00  0.1500000E+00  0.8000000E-02
    1        2.563034   1.000000
    2        3.079624   1.000000
    3        4.913928   1.000000
    4        5.236231   1.000000
    5       11.196247   0.000000
    6       13.003441   0.000000
    7       14.097515   0.000000
    8       14.435475   0.000000
 
 -0.1500000E+00  0.1500000E+00  0.1500000E+00  0.4000000E-02
    1       -4.079493   1.000000
    2        3.344568   1.000000
    3        4.847619   1.000000
    4       10.060083   0.000000
    5       12.042634   0.000000
    6       13.161122   0.000000
    7       17.827321   0.000000
    8       18.120059   0.000000
 
  0.2500000E+00  0.2500000E+00  0.1500000E+00  0.8000000E-02
    1        2.631555   1.000000
    2        3.782195   1.000000
    3        3.955114   1.000000
    4        5.021993   1.000000
    5       11.969976   0.000000
    6       13.377754   0.000000
    7       14.438256   0.000000
    8       14.527818   0.000000
 
  0.3500000E+00  0.2500000E+00  0.1500000E+00  0.1600000E-01
    1        1.287076   1.000000
    2        2.421013   1.000000
    3        5.583178   1.000000
    4        6.610379   1.000000
    5       11.450806   0.000000
    6       12.737449   0.000000
    7       14.004293   0.000000
    8       15.068811   0.000000
 
  0.4500000E+00  0.2500000E+00  0.1500000E+00  0.8000000E-02
    1       -0.743226   1.000000
    2        1.556986   1.000000
    3        8.447916   0.999999
    4        8.656410   0.999385
    5       10.553238   0.000000
    6       11.895560   0.000000
    7       12.846883   0.000000
    8       14.034704   0.000000
 
 -0.2500000E+00  0.2500000E+00  0.1500000E+00  0.8000000E-02
    1       -3.606016   1.000000
    2        2.050865   1.000000
    3        4.844746   1.000000
    4       10.321904   0.000000
    5       11.201995   0.000000
    6       15.003515   0.000000
    7       16.668247   0.000000
    8       18.537056   0.000000
 
 -0.1500000E+00  0.2500000E+00  0.1500000E+00  0.8000000E-02
    1       -3.443255   1.000000
    2        2.800685   1.000000
    3        4.418573   1.000000
    4       10.450880   0.000000
    5       11.560924   0.000000
    6       14.787660   0.000000
    7       14.979324   0.000000
    8       18.160084   0.000000
 
  0.3500000E+00  0.3500000E+00  0.1500000E+00  0.4000000E-02
    1        0.299984   1.000000
    2        0.299987   1.000000
    3        8.510218   0.999990
    4        8.510261   0.999990
    5       11.358472   0.000000
    6       11.358502   0.000000
    7       13.113410   0.000000
    8       13.113445   0.000000
 
 -0.3500000E+00  0.3500000E+00  0.1500000E+00  0.8000000E-02
    1       -2.898872   1.000000
    2        0.549274   1.000000
    3        5.441471   1.000000
    4        8.780106   0.990795
    5       12.112596   0.000000
    6       15.361974   0.000000
    7       17.339049   0.000000
    8       18.368096   0.000000
 
 -0.2500000E+00  0.3500000E+00  0.1500000E+00  0.1600000E-01
    1       -2.855110   1.000000
    2        1.630315   1.000000
    3        4.482540   1.000000
    4        8.826907   0.978634
    5       12.564537   0.000000
    6       14.650095   0.000000
    7       16.763670   0.000000
    8       17.678090   0.000000
 
 -0.1500000E+00  0.3500000E+00  0.1500000E+00  0.8000000E-02
    1       -2.252086   1.000000
    2        2.801606   1.000000
    3        4.474554   1.000000
    4        9.287278   0.109538
    5       10.473613   0.000000
    6       14.219106   0.000000
    7       15.666205   0.000000
    8       16.389817   0.000000
 
 -0.4500000E+00  0.4500000E+00  0.1500000E+00  0.8000000E-02
    1       -1.963232   1.000000
    2       -0.807926   1.000000
    3        6.322012   1.000000
    4        7.439344   1.000000
    5       13.064834   0.000000
    6       14.147497   0.000000
    7       18.113447   0.000000
    8       18.194126   0.000000
 
 -0.3500000E+00  0.4500000E+00  0.1500000E+00  0.1600000E-01
    1       -2.037485   1.000000
    2        0.243310   1.000000
    3        5.177685   1.000000
    4        7.387273   1.000000
    5       13.072274   0.000000
    6       14.717425   0.000000
    7       16.659220   0.000000
    8       18.012130   0.000000
 
 -0.2500000E+00  0.4500000E+00  0.1500000E+00  0.1600000E-01
    1       -1.554562   1.000000
    2        1.753909   1.000000
    3        4.625209   1.000000
    4        7.813061   1.000000
    5       10.094163   0.000000
    6       15.331731   0.000000
    7       15.780790   0.000000
    8       17.748875   0.000000
 
 -0.1500000E+00  0.4500000E+00  0.1500000E+00  0.8000000E-02
    1       -0.521195   1.000000
    2        3.332175   1.000000
    3        5.029164   1.000000
    4        6.940449   1.000000
    5        8.739873   0.995876
    6       13.241778   0.000000
    7       14.879167   0.000000
    8       16.611511   0.000000
 
 -0.4500000E+00 -0.4500000E+00  0.1500000E+00  0.8000000E-02
    1       -1.000573   1.000000
    2       -0.996899   1.000000
    3        6.162108   1.000000
    4        6.167114   1.000000
    5       13.203607   0.000000
    6       15.030380   0.000000
    7       16.024436   0.000000
    8       18.027671   0.000000
 
 -0.3500000E+00 -0.4500000E+00  0.1500000E+00  0.1600000E-01
    1       -0.635639   1.000000
    2        0.487547   1.000000
    3        5.419902   1.000000
    4        6.502871   1.000000
    5        9.900178   0.000000
    6       15.562481   0.000000
    7       16.402258   0.000000
    8       17.634859   0.000000
 
 -0.2500000E+00 -0.4500000E+00  0.1500000E+00  0.1600000E-01
    1        0.275268   1.000000
    2        2.415306   1.000000
    3        5.266793   1.000000
    4        6.595098   1.000000
    5        7.418053   1.000000
    6       13.431979   0.000000
    7       15.984583   0.000000
    8       17.667623   0.000000
 
 -0.1500000E+00 -0.4500000E+00  0.1500000E+00  0.8000000E-02
    1        1.707321   1.000000
    2        3.682814   1.000000
    3        4.588528   1.000000
    4        6.063217   1.000000
    5        8.487783   0.999995
    6       11.577102   0.000000
    7       12.974006   0.000000
    8       17.143749   0.000000
 
 -0.3500000E+00 -0.3500000E+00  0.1500000E+00  0.8000000E-02
    1        1.261498   1.000000
    2        1.289308   1.000000
    3        6.036039   1.000000
    4        6.154733   1.000000
    5        6.700064   1.000000
    6       13.406257   0.000000
    7       17.350334   0.000000
    8       17.381916   0.000000
 
 -0.2500000E+00 -0.3500000E+00  0.1500000E+00  0.1600000E-01
    1        2.535251   1.000000
    2        3.350087   1.000000
    3        3.937977   1.000000
    4        6.423148   1.000000
    5        7.379178   1.000000
    6       11.721122   0.000000
    7       14.162446   0.000000
    8       15.995781   0.000000
 
 -0.1500000E+00 -0.3500000E+00  0.1500000E+00  0.8000000E-02
    1        1.091908   1.000000
    2        4.496090   1.000000
    3        6.045668   1.000000
    4        7.440120   1.000000
    5        8.433192   0.999999
    6       10.717501   0.000000
    7       11.621501   0.000000
    8       14.259451   0.000000
 
 -0.2500000E+00 -0.2500000E+00  0.1500000E+00  0.8000000E-02
    1        0.978920   1.000000
    2        5.353515   1.000000
    3        5.405455   1.000000
    4        7.701983   1.000000
    5        7.966975   1.000000
    6       10.657569   0.000000
    7       12.522336   0.000000
    8       13.117873   0.000000
 
 -0.1500000E+00 -0.2500000E+00  0.1500000E+00  0.8000000E-02
    1       -1.025087   1.000000
    2        7.492308   1.000000
    3        7.783414   1.000000
    4        8.382353   1.000000
    5        8.486727   0.999995
    6       10.565561   0.000000
    7       11.543487   0.000000
    8       12.102905   0.000000
 
 -0.1500000E+00 -0.1500000E+00  0.1500000E+00  0.2000000E-02
    1       -2.618687   1.000000
    2        7.912312   1.000000
    3        7.912342   1.000000
    4        7.923492   1.000000
    5       10.723675   0.000000
    6       11.182504   0.000000
    7       12.677051   0.000000
    8       13.473874   0.000000
 
  0.2500000E+00  0.2500000E+00  0.2500000E+00  0.2000000E-02
    1        3.414722   1.000000
    2        3.414749   1.000000
    3        4.076012   1.000000
    4        4.076014   1.000000
    5       13.288996   0.000000
    6       13.289010   0.000000
    7       15.070328   0.000000
    8       15.070356   0.000000
 
 -0.2500000E+00  0.2500000E+00  0.2500000E+00  0.4000000E-02
    1       -3.135387   1.000000
    2        1.944706   1.000000
    3        3.644548   1.000000
    4        8.596819   0.999871
    5       12.962746   0.000000
    6       16.211570   0.000000
    7       17.422685   0.000000
    8       18.333122   0.000000
 
 -0.3500000E+00  0.3500000E+00  0.2500000E+00  0.8000000E-02
    1       -2.434978   1.000000
    2        0.890560   1.000000
    3        3.794465   1.000000
    4        7.035649   1.000000
    5       14.186999   0.000000
    6       16.819409   0.000000
    7       17.843145   0.000000
    8       18.543227   0.000000
 
 -0.2500000E+00  0.3500000E+00  0.2500000E+00  0.8000000E-02
    1       -2.273431   1.000000
    2        1.631600   1.000000
    3        3.374715   1.000000
    4        7.183063   1.000000
    5       13.160929   0.000000
    6       15.527829   0.000000
    7       18.033370   0.000000
    8       19.005954   0.000000
 
 -0.4500000E+00  0.4500000E+00  0.2500000E+00  0.8000000E-02
    1       -1.511715   1.000000
    2       -0.383578   1.000000
    3        4.597420   1.000000
    4        5.698417   1.000000
    5       15.149974   0.000000
    6       16.036927   0.000000
    7       17.911843   0.000000
    8       18.121303   0.000000
 
 -0.3500000E+00  0.4500000E+00  0.2500000E+00  0.1600000E-01
    1       -1.468625   1.000000
    2        0.698094   1.000000
    3        3.623728   1.000000
    4        5.742093   1.000000
    5       13.074273   0.000000
    6       16.633236   0.000000
    7       18.763704   0.000000
    8       19.216936   0.000000
 
 -0.2500000E+00  0.4500000E+00  0.2500000E+00  0.8000000E-02
    1       -0.870285   1.000000
    2        1.866142   1.000000
    3        3.625252   1.000000
    4        6.293536   1.000000
    5        9.698007   0.000018
    6       16.563442   0.000000
    7       17.516144   0.000000
    8       18.130181   0.000000
 
 -0.4500000E+00 -0.4500000E+00  0.2500000E+00  0.8000000E-02
    1       -0.460625   1.000000
    2       -0.455602   1.000000
    3        4.532808   1.000000
    4        4.533716   1.000000
    5       13.012812   0.000000
    6       17.360312   0.000000
    7       18.118308   0.000000
    8       19.246580   0.000000
 
 -0.3500000E+00 -0.4500000E+00  0.2500000E+00  0.1600000E-01
    1        0.020318   1.000000
    2        1.055450   1.000000
    3        3.977566   1.000000
    4        4.989972   1.000000
    5        9.496222   0.003400
    6       16.973460   0.000000
    7       18.469643   0.000000
    8       19.164937   0.000000
 
 -0.2500000E+00 -0.4500000E+00  0.2500000E+00  0.8000000E-02
    1        1.042014   1.000000
    2        2.636618   1.000000
    3        4.398865   1.000000
    4        5.879611   1.000000
    5        6.422719   1.000000
    6       14.612754   0.000000
    7       16.181343   0.000000
    8       18.241091   0.000000
 
 -0.3500000E+00 -0.3500000E+00  0.2500000E+00  0.8000000E-02
    1        1.930762   1.000000
    2        1.973243   1.000000
    3        4.831406   1.000000
    4        4.855997   1.000000
    5        6.257456   1.000000
    6       14.941920   0.000000
    7       17.083377   0.000000
    8       17.476628   0.000000
 
 -0.2500000E+00 -0.3500000E+00  0.2500000E+00  0.8000000E-02
    1        2.992417   1.000000
    2        3.590938   1.000000
    3        4.163360   1.000000
    4        5.663664   1.000000
    5        6.230118   1.000000
    6       12.989521   0.000000
    7       14.171236   0.000000
    8       15.173275   0.000000
 
 -0.2500000E+00 -0.2500000E+00  0.2500000E+00  0.2000000E-02
    1        0.865196   1.000000
    2        5.792841   1.000000
    3        5.885719   1.000000
    4        7.302011   1.000000
    5        7.302028   1.000000
    6       11.598211   0.000000
    7       12.392143   0.000000
    8       12.392160   0.000000
 