Automatically generated mesh
      99
Reciprocal lattice
    0.05000000000000    0.05000000000000    0.05000000000000           128
    0.15000000000000    0.05000000000000    0.05000000000000           256
    0.25000000000000    0.05000000000000    0.05000000000000           256
    0.35000000000000    0.05000000000000    0.05000000000000           256
    0.45000000000000    0.05000000000000    0.05000000000000           128
   -0.05000000000000    0.05000000000000    0.05000000000000            64
    0.15000000000000    0.15000000000000    0.05000000000000           128
    0.25000000000000    0.15000000000000    0.05000000000000           256
    0.35000000000000    0.15000000000000    0.05000000000000           256
    0.45000000000000    0.15000000000000    0.05000000000000           256
   -0.45000000000000    0.15000000000000    0.05000000000000           256
   -0.35000000000000    0.15000000000000    0.05000000000000           256
   -0.25000000000000    0.15000000000000    0.05000000000000           128
   -0.15000000000000    0.15000000000000    0.05000000000000           128
   -0.05000000000000    0.15000000000000    0.05000000000000           128
    0.25000000000000    0.25000000000000    0.05000000000000           128
    0.35000000000000    0.25000000000000    0.05000000000000           256
    0.45000000000000    0.25000000000000    0.05000000000000           256
   -0.45000000000000    0.25000000000000    0.05000000000000           256
   -0.35000000000000    0.25000000000000    0.05000000000000           128
   -0.25000000000000    0.25000000000000    0.05000000000000           128
   -0.15000000000000    0.25000000000000    0.05000000000000           256
   -0.05000000000000    0.25000000000000    0.05000000000000           128
    0.35000000000000    0.35000000000000    0.05000000000000           128
    0.45000000000000    0.35000000000000    0.05000000000000           256
   -0.45000000000000    0.35000000000000    0.05000000000000           128
   -0.35000000000000    0.35000000000000    0.05000000000000           128
   -0.25000000000000    0.35000000000000    0.05000000000000           256
   -0.15000000000000    0.35000000000000    0.05000000000000           256
   -0.05000000000000    0.35000000000000    0.05000000000000           128
    0.45000000000000    0.45000000000000    0.05000000000000            64
   -0.45000000000000    0.45000000000000    0.05000000000000           128
   -0.35000000000000    0.45000000000000    0.05000000000000           256
   -0.25000000000000    0.45000000000000    0.05000000000000           256
   -0.15000000000000    0.45000000000000    0.05000000000000           256
   -0.05000000000000    0.45000000000000    0.05000000000000           128
   -0.45000000000000   -0.45000000000000    0.05000000000000           128
   -0.35000000000000   -0.45000000000000    0.05000000000000           256
   -0.25000000000000   -0.45000000000000    0.05000000000000           256
   -0.15000000000000   -0.45000000000000    0.05000000000000           256
   -0.05000000000000   -0.45000000000000    0.05000000000000           128
   -0.35000000000000   -0.35000000000000    0.05000000000000           128
   -0.25000000000000   -0.35000000000000    0.05000000000000           256
   -0.15000000000000   -0.35000000000000    0.05000000000000           256
   -0.05000000000000   -0.35000000000000    0.05000000000000           128
   -0.25000000000000   -0.25000000000000    0.05000000000000           128
   -0.15000000000000   -0.25000000000000    0.05000000000000           256
   -0.05000000000000   -0.25000000000000    0.05000000000000           128
   -0.15000000000000   -0.15000000000000    0.05000000000000           128
   -0.05000000000000   -0.15000000000000    0.05000000000000           128
   -0.05000000000000   -0.05000000000000    0.05000000000000            32
    0.15000000000000    0.15000000000000    0.15000000000000           128
    0.25000000000000    0.15000000000000    0.15000000000000           256
    0.35000000000000    0.15000000000000    0.15000000000000           128
   -0.15000000000000    0.15000000000000    0.15000000000000            64
    0.25000000000000    0.25000000000000    0.15000000000000           128
    0.35000000000000    0.25000000000000    0.15000000000000           256
    0.45000000000000    0.25000000000000    0.15000000000000           128
   -0.25000000000000    0.25000000000000    0.15000000000000           128
   -0.15000000000000    0.25000000000000    0.15000000000000           128
    0.35000000000000    0.35000000000000    0.15000000000000            64
   -0.35000000000000    0.35000000000000    0.15000000000000           128
   -0.25000000000000    0.35000000000000    0.15000000000000           256
   -0.15000000000000    0.35000000000000    0.15000000000000           128
   -0.45000000000000    0.45000000000000    0.15000000000000           128
   -0.35000000000000    0.45000000000000    0.15000000000000           256
   -0.25000000000000    0.45000000000000    0.15000000000000           256
   -0.15000000000000    0.45000000000000    0.15000000000000           128
   -0.45000000000000   -0.45000000000000    0.15000000000000           128
   -0.35000000000000   -0.45000000000000    0.15000000000000           256
   -0.25000000000000   -0.45000000000000    0.15000000000000           256
   -0.15000000000000   -0.45000000000000    0.15000000000000           128
   -0.35000000000000   -0.35000000000000    0.15000000000000           128
   -0.25000000000000   -0.35000000000000    0.15000000000000           256
   -0.15000000000000   -0.35000000000000    0.15000000000000           128
   -0.25000000000000   -0.25000000000000    0.15000000000000           128
   -0.15000000000000   -0.25000000000000    0.15000000000000           128
   -0.15000000000000   -0.15000000000000    0.15000000000000            32
    0.25000000000000    0.25000000000000    0.25000000000000            32
   -0.25000000000000    0.25000000000000    0.25000000000000            64
   -0.35000000000000    0.35000000000000    0.25000000000000           128
   -0.25000000000000    0.35000000000000    0.25000000000000           128
   -0.45000000000000    0.45000000000000    0.25000000000000           128
   -0.35000000000000    0.45000000000000    0.25000000000000           256
   -0.25000000000000    0.45000000000000    0.25000000000000           128
   -0.45000000000000   -0.45000000000000    0.25000000000000           128
   -0.35000000000000   -0.45000000000000    0.25000000000000           256
   -0.25000000000000   -0.45000000000000    0.25000000000000           128
   -0.35000000000000   -0.35000000000000    0.25000000000000           128
   -0.25000000000000   -0.35000000000000    0.25000000000000           128
   -0.25000000000000   -0.25000000000000    0.25000000000000            32
   -0.35000000000000    0.35000000000000    0.35000000000000            64
   -0.45000000000000    0.45000000000000    0.35000000000000           128
   -0.35000000000000    0.45000000000000    0.35000000000000           128
   -0.45000000000000   -0.45000000000000    0.35000000000000           128
   -0.35000000000000   -0.45000000000000    0.35000000000000           128
   -0.35000000000000   -0.35000000000000    0.35000000000000            32
   -0.45000000000000    0.45000000000000    0.45000000000000            64
   -0.45000000000000   -0.45000000000000    0.45000000000000            32
