       N       E                     dE             d eps       ncg     rms          rms(c)
DAV:   1    -0.101195540663E+02   -0.10120E+02   -0.24752E-06   944   0.140E-02    0.467E-04
DAV:   2    -0.101195540866E+02   -0.20381E-07   -0.11161E-07   920   0.248E-03
   1 F= -.10119554E+02 E0= -.10111329E+02  d E =-.101196E+02
