<?xml version="1.0" encoding="ISO-8859-1"?>
<modeling>
 <generator>
  <i name="program" type="string">vasp </i>
  <i name="version" type="string">5.4.4.18Apr17-6-g9f103f2a35  </i>
  <i name="subversion" type="string">(build Dec 09 2018 21:25:21) complex            parallel </i>
  <i name="platform" type="string">IFC18.0.1.163_CrayMPICH7.7.0_MKL18.0.1.163 </i>
  <i name="date" type="string">2019 03 19 </i>
  <i name="time" type="string">13:01:02 </i>
 </generator>
 <incar>
  <i type="string" name="PREC">normal</i>
  <i type="int" name="IBRION">     2</i>
  <i name="EDIFF">      0.00040000</i>
  <i name="EDIFFG">     -0.01000000</i>
  <i type="int" name="NSW">    15</i>
  <i type="int" name="ISIF">     2</i>
  <i name="ENCUT">    150.00000000</i>
  <i type="int" name="NBANDS">     8</i>
  <i type="logical" name="LREAL"> F  </i>
  <i type="int" name="ISMEAR">     0</i>
  <i name="SIGMA">      0.20000000</i>
  <v type="int" name="KPOINT_BSE">    -1     0     0     0</v>
 </incar>
 <structure name="primitive_cell" >
  <crystal>
   <varray name="basis" >
    <v>      -2.45000000       2.45000000       1.27400000 </v>
    <v>       2.45000000      -2.45000000       1.27400000 </v>
    <v>       2.45000000       2.45000000      -1.27400000 </v>
   </varray>
   <i name="volume">     30.58874000 </i>
   <varray name="rec_basis" >
    <v>       0.00000000       0.20408163       0.39246468 </v>
    <v>       0.20408163       0.00000000       0.39246468 </v>
    <v>       0.20408163       0.20408163      -0.00000000 </v>
   </varray>
  </crystal>
  <varray name="positions" >
   <v>       0.25000000      -0.25000000      -0.50000000 </v>
   <v>       0.00000000       0.00000000       0.00000000 </v>
  </varray>
 </structure>
 <varray name="primitive_index" >
  <v type="int" >        1 </v>
  <v type="int" >        2 </v>
 </varray>
 <kpoints>
  <generation param="Monkhorst-Pack">
   <v type="int" name="divisions">      10       10       10 </v>
   <v name="usershift">      0.00000000       0.00000000       0.00000000 </v>
   <v name="genvec1">      0.10000000       0.00000000      -0.00000000 </v>
   <v name="genvec2">      0.00000000       0.10000000      -0.00000000 </v>
   <v name="genvec3">      0.00000000      -0.00000000       0.10000000 </v>
   <v name="shift">      0.50000000       0.50000000       0.50000000 </v>
  </generation>
  <varray name="kpointlist" >
   <v>       0.05000000       0.05000000       0.05000000 </v>
   <v>       0.15000000       0.05000000       0.05000000 </v>
   <v>       0.25000000       0.05000000       0.05000000 </v>
   <v>       0.35000000       0.05000000       0.05000000 </v>
   <v>       0.45000000       0.05000000       0.05000000 </v>
   <v>      -0.05000000       0.05000000       0.05000000 </v>
   <v>       0.15000000       0.15000000       0.05000000 </v>
   <v>       0.25000000       0.15000000       0.05000000 </v>
   <v>       0.35000000       0.15000000       0.05000000 </v>
   <v>       0.45000000       0.15000000       0.05000000 </v>
   <v>      -0.45000000       0.15000000       0.05000000 </v>
   <v>      -0.35000000       0.15000000       0.05000000 </v>
   <v>      -0.25000000       0.15000000       0.05000000 </v>
   <v>      -0.15000000       0.15000000       0.05000000 </v>
   <v>      -0.05000000       0.15000000       0.05000000 </v>
   <v>       0.25000000       0.25000000       0.05000000 </v>
   <v>       0.35000000       0.25000000       0.05000000 </v>
   <v>       0.45000000       0.25000000       0.05000000 </v>
   <v>      -0.45000000       0.25000000       0.05000000 </v>
   <v>      -0.35000000       0.25000000       0.05000000 </v>
   <v>      -0.25000000       0.25000000       0.05000000 </v>
   <v>      -0.15000000       0.25000000       0.05000000 </v>
   <v>      -0.05000000       0.25000000       0.05000000 </v>
   <v>       0.35000000       0.35000000       0.05000000 </v>
   <v>       0.45000000       0.35000000       0.05000000 </v>
   <v>      -0.45000000       0.35000000       0.05000000 </v>
   <v>      -0.35000000       0.35000000       0.05000000 </v>
   <v>      -0.25000000       0.35000000       0.05000000 </v>
   <v>      -0.15000000       0.35000000       0.05000000 </v>
   <v>      -0.05000000       0.35000000       0.05000000 </v>
   <v>       0.45000000       0.45000000       0.05000000 </v>
   <v>      -0.45000000       0.45000000       0.05000000 </v>
   <v>      -0.35000000       0.45000000       0.05000000 </v>
   <v>      -0.25000000       0.45000000       0.05000000 </v>
   <v>      -0.15000000       0.45000000       0.05000000 </v>
   <v>      -0.05000000       0.45000000       0.05000000 </v>
   <v>      -0.45000000      -0.45000000       0.05000000 </v>
   <v>      -0.35000000      -0.45000000       0.05000000 </v>
   <v>      -0.25000000      -0.45000000       0.05000000 </v>
   <v>      -0.15000000      -0.45000000       0.05000000 </v>
   <v>      -0.05000000      -0.45000000       0.05000000 </v>
   <v>      -0.35000000      -0.35000000       0.05000000 </v>
   <v>      -0.25000000      -0.35000000       0.05000000 </v>
   <v>      -0.15000000      -0.35000000       0.05000000 </v>
   <v>      -0.05000000      -0.35000000       0.05000000 </v>
   <v>      -0.25000000      -0.25000000       0.05000000 </v>
   <v>      -0.15000000      -0.25000000       0.05000000 </v>
   <v>      -0.05000000      -0.25000000       0.05000000 </v>
   <v>      -0.15000000      -0.15000000       0.05000000 </v>
   <v>      -0.05000000      -0.15000000       0.05000000 </v>
   <v>      -0.05000000      -0.05000000       0.05000000 </v>
   <v>       0.15000000       0.15000000       0.15000000 </v>
   <v>       0.25000000       0.15000000       0.15000000 </v>
   <v>       0.35000000       0.15000000       0.15000000 </v>
   <v>      -0.15000000       0.15000000       0.15000000 </v>
   <v>       0.25000000       0.25000000       0.15000000 </v>
   <v>       0.35000000       0.25000000       0.15000000 </v>
   <v>       0.45000000       0.25000000       0.15000000 </v>
   <v>      -0.25000000       0.25000000       0.15000000 </v>
   <v>      -0.15000000       0.25000000       0.15000000 </v>
   <v>       0.35000000       0.35000000       0.15000000 </v>
   <v>      -0.35000000       0.35000000       0.15000000 </v>
   <v>      -0.25000000       0.35000000       0.15000000 </v>
   <v>      -0.15000000       0.35000000       0.15000000 </v>
   <v>      -0.45000000       0.45000000       0.15000000 </v>
   <v>      -0.35000000       0.45000000       0.15000000 </v>
   <v>      -0.25000000       0.45000000       0.15000000 </v>
   <v>      -0.15000000       0.45000000       0.15000000 </v>
   <v>      -0.45000000      -0.45000000       0.15000000 </v>
   <v>      -0.35000000      -0.45000000       0.15000000 </v>
   <v>      -0.25000000      -0.45000000       0.15000000 </v>
   <v>      -0.15000000      -0.45000000       0.15000000 </v>
   <v>      -0.35000000      -0.35000000       0.15000000 </v>
   <v>      -0.25000000      -0.35000000       0.15000000 </v>
   <v>      -0.15000000      -0.35000000       0.15000000 </v>
   <v>      -0.25000000      -0.25000000       0.15000000 </v>
   <v>      -0.15000000      -0.25000000       0.15000000 </v>
   <v>      -0.15000000      -0.15000000       0.15000000 </v>
   <v>       0.25000000       0.25000000       0.25000000 </v>
   <v>      -0.25000000       0.25000000       0.25000000 </v>
   <v>      -0.35000000       0.35000000       0.25000000 </v>
   <v>      -0.25000000       0.35000000       0.25000000 </v>
   <v>      -0.45000000       0.45000000       0.25000000 </v>
   <v>      -0.35000000       0.45000000       0.25000000 </v>
   <v>      -0.25000000       0.45000000       0.25000000 </v>
   <v>      -0.45000000      -0.45000000       0.25000000 </v>
   <v>      -0.35000000      -0.45000000       0.25000000 </v>
   <v>      -0.25000000      -0.45000000       0.25000000 </v>
   <v>      -0.35000000      -0.35000000       0.25000000 </v>
   <v>      -0.25000000      -0.35000000       0.25000000 </v>
   <v>      -0.25000000      -0.25000000       0.25000000 </v>
   <v>      -0.35000000       0.35000000       0.35000000 </v>
   <v>      -0.45000000       0.45000000       0.35000000 </v>
   <v>      -0.35000000       0.45000000       0.35000000 </v>
   <v>      -0.45000000      -0.45000000       0.35000000 </v>
   <v>      -0.35000000      -0.45000000       0.35000000 </v>
   <v>      -0.35000000      -0.35000000       0.35000000 </v>
   <v>      -0.45000000       0.45000000       0.45000000 </v>
   <v>      -0.45000000      -0.45000000       0.45000000 </v>
  </varray>
  <varray name="weights" >
   <v>       0.00800000 </v>
   <v>       0.01600000 </v>
   <v>       0.01600000 </v>
   <v>       0.01600000 </v>
   <v>       0.00800000 </v>
   <v>       0.00400000 </v>
   <v>       0.00800000 </v>
   <v>       0.01600000 </v>
   <v>       0.01600000 </v>
   <v>       0.01600000 </v>
   <v>       0.01600000 </v>
   <v>       0.01600000 </v>
   <v>       0.00800000 </v>
   <v>       0.00800000 </v>
   <v>       0.00800000 </v>
   <v>       0.00800000 </v>
   <v>       0.01600000 </v>
   <v>       0.01600000 </v>
   <v>       0.01600000 </v>
   <v>       0.00800000 </v>
   <v>       0.00800000 </v>
   <v>       0.01600000 </v>
   <v>       0.00800000 </v>
   <v>       0.00800000 </v>
   <v>       0.01600000 </v>
   <v>       0.00800000 </v>
   <v>       0.00800000 </v>
   <v>       0.01600000 </v>
   <v>       0.01600000 </v>
   <v>       0.00800000 </v>
   <v>       0.00400000 </v>
   <v>       0.00800000 </v>
   <v>       0.01600000 </v>
   <v>       0.01600000 </v>
   <v>       0.01600000 </v>
   <v>       0.00800000 </v>
   <v>       0.00800000 </v>
   <v>       0.01600000 </v>
   <v>       0.01600000 </v>
   <v>       0.01600000 </v>
   <v>       0.00800000 </v>
   <v>       0.00800000 </v>
   <v>       0.01600000 </v>
   <v>       0.01600000 </v>
   <v>       0.00800000 </v>
   <v>       0.00800000 </v>
   <v>       0.01600000 </v>
   <v>       0.00800000 </v>
   <v>       0.00800000 </v>
   <v>       0.00800000 </v>
   <v>       0.00200000 </v>
   <v>       0.00800000 </v>
   <v>       0.01600000 </v>
   <v>       0.00800000 </v>
   <v>       0.00400000 </v>
   <v>       0.00800000 </v>
   <v>       0.01600000 </v>
   <v>       0.00800000 </v>
   <v>       0.00800000 </v>
   <v>       0.00800000 </v>
   <v>       0.00400000 </v>
   <v>       0.00800000 </v>
   <v>       0.01600000 </v>
   <v>       0.00800000 </v>
   <v>       0.00800000 </v>
   <v>       0.01600000 </v>
   <v>       0.01600000 </v>
   <v>       0.00800000 </v>
   <v>       0.00800000 </v>
   <v>       0.01600000 </v>
   <v>       0.01600000 </v>
   <v>       0.00800000 </v>
   <v>       0.00800000 </v>
   <v>       0.01600000 </v>
   <v>       0.00800000 </v>
   <v>       0.00800000 </v>
   <v>       0.00800000 </v>
   <v>       0.00200000 </v>
   <v>       0.00200000 </v>
   <v>       0.00400000 </v>
   <v>       0.00800000 </v>
   <v>       0.00800000 </v>
   <v>       0.00800000 </v>
   <v>       0.01600000 </v>
   <v>       0.00800000 </v>
   <v>       0.00800000 </v>
   <v>       0.01600000 </v>
   <v>       0.00800000 </v>
   <v>       0.00800000 </v>
   <v>       0.00800000 </v>
   <v>       0.00200000 </v>
   <v>       0.00400000 </v>
   <v>       0.00800000 </v>
   <v>       0.00800000 </v>
   <v>       0.00800000 </v>
   <v>       0.00800000 </v>
   <v>       0.00200000 </v>
   <v>       0.00400000 </v>
   <v>       0.00200000 </v>
  </varray>
 </kpoints>
 <parameters>
  <separator name="general" >
   <i type="string" name="SYSTEM">unknown system</i>
   <i type="logical" name="LCOMPAT"> F  </i>
  </separator>
  <separator name="electronic" >
   <i type="string" name="PREC">normal</i>
   <i name="ENMAX">    150.00000000</i>
   <i name="ENAUG">    322.06900000</i>
   <i name="EDIFF">      0.00040000</i>
   <i type="int" name="IALGO">    38</i>
   <i type="int" name="IWAVPR">    11</i>
   <i type="int" name="NBANDS">     8</i>
   <i name="NELECT">      8.00000000</i>
   <i type="int" name="TURBO">     0</i>
   <i type="int" name="IRESTART">     0</i>
   <i type="int" name="NREBOOT">     0</i>
   <i type="int" name="NMIN">     0</i>
   <i name="EREF">      0.00000000</i>
   <separator name="electronic smearing" >
    <i type="int" name="ISMEAR">     0</i>
    <i name="SIGMA">      0.20000000</i>
    <i name="KSPACING">      0.50000000</i>
    <i type="logical" name="KGAMMA"> T  </i>
   </separator>
   <separator name="electronic projectors" >
    <i type="logical" name="LREAL"> F  </i>
    <v name="ROPT">      0.00000000</v>
    <i type="int" name="LMAXPAW">  -100</i>
    <i type="int" name="LMAXMIX">     2</i>
    <i type="logical" name="NLSPLINE"> F  </i>
   </separator>
   <separator name="electronic startup" >
    <i type="int" name="ISTART">     1</i>
    <i type="int" name="ICHARG">     0</i>
    <i type="int" name="INIWAV">     1</i>
   </separator>
   <separator name="electronic spin" >
    <i type="int" name="ISPIN">     1</i>
    <i type="logical" name="LNONCOLLINEAR"> F  </i>
    <v name="MAGMOM">      1.00000000      1.00000000</v>
    <i name="NUPDOWN">     -1.00000000</i>
    <i type="logical" name="LSORBIT"> F  </i>
    <v name="SAXIS">      0.00000000      0.00000000      1.00000000</v>
    <i type="logical" name="LSPIRAL"> F  </i>
    <v name="QSPIRAL">      0.00000000      0.00000000      0.00000000</v>
    <i type="logical" name="LZEROZ"> F  </i>
   </separator>
   <separator name="electronic exchange-correlation" >
    <i type="logical" name="LASPH"> F  </i>
    <i type="logical" name="LMETAGGA"> F  </i>
   </separator>
   <separator name="electronic convergence" >
    <i type="int" name="NELM">    60</i>
    <i type="int" name="NELMDL">     0</i>
    <i type="int" name="NELMIN">     2</i>
    <i name="ENINI">    150.00000000</i>
    <separator name="electronic convergence detail" >
     <i type="logical" name="LDIAG"> T  </i>
     <i type="logical" name="LSUBROT"> F  </i>
     <i name="WEIMIN">      0.00100000</i>
     <i name="EBREAK">      0.00001250</i>
     <i name="DEPER">      0.30000000</i>
     <i type="int" name="NRMM">     4</i>
     <i name="TIME">      0.40000000</i>
    </separator>
   </separator>
   <separator name="electronic mixer" >
    <i name="AMIX">      0.40000000</i>
    <i name="BMIX">      1.00000000</i>
    <i name="AMIN">      0.10000000</i>
    <i name="AMIX_MAG">      1.60000000</i>
    <i name="BMIX_MAG">      1.00000000</i>
    <separator name="electronic mixer details" >
     <i type="int" name="IMIX">     4</i>
     <i type="logical" name="MIXFIRST"> F  </i>
     <i type="int" name="MAXMIX">   -45</i>
     <i name="WC">    100.00000000</i>
     <i type="int" name="INIMIX">     1</i>
     <i type="int" name="MIXPRE">     1</i>
     <i type="int" name="MREMOVE">     5</i>
    </separator>
   </separator>
   <separator name="electronic dipolcorrection" >
    <i type="logical" name="LDIPOL"> F  </i>
    <i type="logical" name="LMONO"> F  </i>
    <i type="int" name="IDIPOL">     0</i>
    <i name="EPSILON">      1.00000000</i>
    <v name="DIPOL">   -100.00000000   -100.00000000   -100.00000000</v>
    <i name="EFIELD">      0.00000000</i>
   </separator>
  </separator>
  <separator name="grids" >
   <i type="int" name="NGX">    12</i>
   <i type="int" name="NGY">    12</i>
   <i type="int" name="NGZ">    12</i>
   <i type="int" name="NGXF">    24</i>
   <i type="int" name="NGYF">    24</i>
   <i type="int" name="NGZF">    24</i>
   <i type="logical" name="ADDGRID"> F  </i>
  </separator>
  <separator name="ionic" >
   <i type="int" name="NSW">    15</i>
   <i type="int" name="IBRION">     2</i>
   <i type="int" name="MDALGO">     0</i>
   <i type="int" name="ISIF">     2</i>
   <i name="PSTRESS">      0.00000000</i>
   <i name="EDIFFG">     -0.01000000</i>
   <i type="int" name="NFREE">     1</i>
   <i name="POTIM">      0.50000000</i>
   <i name="SMASS">     -3.00000000</i>
   <i name="SCALEE">      1.00000000</i>
  </separator>
  <separator name="ionic md" >
   <i name="TEBEG">      0.00010000</i>
   <i name="TEEND">      0.00010000</i>
   <i type="int" name="NBLOCK">     1</i>
   <i type="int" name="KBLOCK">    15</i>
   <i type="int" name="NPACO">   256</i>
   <i name="APACO">     16.00000000</i>
  </separator>
  <separator name="symmetry" >
   <i type="int" name="ISYM">     2</i>
   <i name="SYMPREC">      0.00001000</i>
  </separator>
  <separator name="dos" >
   <i type="int" name="LORBIT">     0</i>
   <v name="RWIGS">     -1.00000000</v>
   <i type="int" name="NEDOS">   301</i>
   <i name="EMIN">     10.00000000</i>
   <i name="EMAX">    -10.00000000</i>
   <i name="EFERMI">      0.00000000</i>
  </separator>
  <separator name="writing" >
   <i type="int" name="NWRITE">     2</i>
   <i type="logical" name="LWAVE"> T  </i>
   <i type="logical" name="LDOWNSAMPLE"> F  </i>
   <i type="logical" name="LCHARG"> T  </i>
   <i type="logical" name="LPARD"> F  </i>
   <i type="logical" name="LVTOT"> F  </i>
   <i type="logical" name="LVHAR"> F  </i>
   <i type="logical" name="LELF"> F  </i>
   <i type="logical" name="LOPTICS"> F  </i>
   <v name="STM">      0.00000000      0.00000000      0.00000000      0.00000000      0.00000000      0.00000000      0.00000000</v>
  </separator>
  <separator name="performance" >
   <i type="int" name="NPAR">     8</i>
   <i type="int" name="NSIM">     4</i>
   <i type="int" name="NBLK">    -1</i>
   <i type="logical" name="LPLANE"> T  </i>
   <i type="logical" name="LSCALAPACK"> T  </i>
   <i type="logical" name="LSCAAWARE"> F  </i>
   <i type="logical" name="LSCALU"> F  </i>
   <i type="logical" name="LASYNC"> F  </i>
   <i type="logical" name="LORBITALREAL"> F  </i>
  </separator>
  <separator name="miscellaneous" >
   <i type="int" name="IDIOT">     3</i>
   <i type="int" name="ISPECIAL">     0</i>
   <i type="logical" name="LMUSIC"> F  </i>
   <v name="POMASS">     28.08500000</v>
   <v name="DARWINR">      0.00000000</v>
   <v name="DARWINV">      1.00000000</v>
   <i type="logical" name="LCORR"> T  </i>
  </separator>
  <i type="logical" name="GGA_COMPAT"> T  </i>
  <i type="logical" name="LBERRY"> F  </i>
  <i type="int" name="ICORELEVEL">     0</i>
  <i type="logical" name="LDAU"> F  </i>
  <i type="int" name="I_CONSTRAINED_M">     0</i>
  <separator name="electronic exchange-correlation" >
   <i type="string" name="GGA">--</i>
   <i type="int" name="VOSKOWN">     0</i>
   <i type="logical" name="LHFCALC"> F  </i>
   <i type="string" name="PRECFOCK"></i>
   <i type="logical" name="LSYMGRAD"> F  </i>
   <i type="logical" name="LHFONE"> F  </i>
   <i type="logical" name="LRHFCALC"> F  </i>
   <i type="logical" name="LTHOMAS"> F  </i>
   <i type="logical" name="LMODELHF"> F  </i>
   <i name="ENCUT4O">     -1.00000000</i>
   <i type="int" name="EXXOEP">     0</i>
   <i type="int" name="FOURORBIT">     0</i>
   <i name="AEXX">      0.00000000</i>
   <i name="HFALPHA">      0.00000000</i>
   <i name="MCALPHA">      0.00000000</i>
   <i name="ALDAX">      1.00000000</i>
   <i name="AGGAX">      1.00000000</i>
   <i name="ALDAC">      1.00000000</i>
   <i name="AGGAC">      1.00000000</i>
   <i type="int" name="NKREDX">     1</i>
   <i type="int" name="NKREDY">     1</i>
   <i type="int" name="NKREDZ">     1</i>
   <i type="logical" name="SHIFTRED"> F  </i>
   <i type="logical" name="ODDONLY"> F  </i>
   <i type="logical" name="EVENONLY"> F  </i>
   <i type="int" name="LMAXFOCK">     0</i>
   <i type="int" name="NMAXFOCKAE">     0</i>
   <i type="logical" name="LFOCKAEDFT"> F  </i>
   <i name="HFSCREEN">      0.00000000</i>
   <i name="HFSCREENC">      0.00000000</i>
   <i type="int" name="NBANDSGWLOW">     0</i>
  </separator>
  <separator name="vdW DFT" >
   <i type="logical" name="LUSE_VDW"> F  </i>
   <i name="Zab_VDW">     -0.84910000</i>
   <i name="PARAM1">      0.12340000</i>
   <i name="PARAM2">      1.00000000</i>
   <i name="PARAM3">      0.00000000</i>
  </separator>
  <separator name="model GW" >
   <i type="int" name="MODEL_GW">     0</i>
   <i name="MODEL_EPS0">      9.17662200</i>
   <i name="MODEL_ALPHA">      1.00000000</i>
  </separator>
  <separator name="linear response parameters" >
   <i type="logical" name="LEPSILON"> F  </i>
   <i type="logical" name="LRPA"> F  </i>
   <i type="logical" name="LNABLA"> F  </i>
   <i type="logical" name="LVEL"> F  </i>
   <i type="int" name="KINTER">     0</i>
   <i name="CSHIFT">      0.10000000</i>
   <i name="OMEGAMAX">     -1.00000000</i>
   <i name="DEG_THRESHOLD">      0.00200000</i>
   <i name="RTIME">     -0.10000000</i>
   <i name="WPLASMAI">      0.00000000</i>
   <v name="DFIELD">      0.00000000      0.00000000      0.00000000</v>
   <v name="WPLASMA">      0.00000000      0.00000000      0.00000000      0.00000000      0.00000000      0.00000000      0.00000000      0.00000000      0.00000000</v>
  </separator>
  <separator name="orbital magnetization" >
   <i type="logical" name="NUCIND"> F  </i>
   <v name="MAGPOS">      0.00000000      0.00000000      0.00000000</v>
   <i type="logical" name="LNICSALL"> T  </i>
   <i type="logical" name="ORBITALMAG"> F  </i>
   <i type="logical" name="LMAGBLOCH"> F  </i>
   <i type="logical" name="LCHIMAG"> F  </i>
   <i type="logical" name="LGAUGE"> T  </i>
   <i type="int" name="MAGATOM">     0</i>
   <v name="MAGDIPOL">      0.00000000      0.00000000      0.00000000</v>
   <v name="AVECCONST">      0.00000000      0.00000000      0.00000000</v>
  </separator>
  <separator name="response functions" >
   <i type="logical" name="LADDER"> F  </i>
   <i type="logical" name="LRPAFORCE"> F  </i>
   <i type="logical" name="LFXC"> F  </i>
   <i type="logical" name="LHARTREE"> T  </i>
   <i type="int" name="IBSE">     0</i>
   <v type="int" name="KPOINT">    -1     0     0     0</v>
   <i type="logical" name="LTCTE"> F  </i>
   <i type="logical" name="LTETE"> F  </i>
   <i type="logical" name="LTRIPLET"> F  </i>
   <i type="logical" name="LFXCEPS"> F  </i>
   <i type="logical" name="LFXHEG"> F  </i>
   <i type="int" name="NATURALO">     2</i>
   <i type="logical" name="L2ORDER"> F  </i>
   <i type="logical" name="LMP2LT"> F  </i>
   <i type="logical" name="LUSEW"> F  </i>
   <i name="ENCUTGW">     -2.00000000</i>
   <i name="ENCUTGWSOFT">     -2.00000000</i>
   <i name="ENCUTLF">     -1.00000000</i>
   <i type="int" name="LMAXMP2">    -1</i>
   <i name="SCISSOR">      0.00000000</i>
   <i type="int" name="NOMEGA">     0</i>
   <i type="int" name="NOMEGAR">     0</i>
   <i type="int" name="NBANDSGW">    -1</i>
   <i type="int" name="NBANDSO">    -1</i>
   <i type="int" name="NBANDSV">    -1</i>
   <i type="int" name="NELM">     1</i>
   <i type="int" name="NELMHF">     1</i>
   <i type="int" name="DIM">     3</i>
   <i type="int" name="ANTIRES">     0</i>
   <i name="OMEGAMAX">    -30.00000000</i>
   <i name="OMEGAMIN">    -30.00000000</i>
   <i name="OMEGATL">   -200.00000000</i>
   <i type="int" name="OMEGAGRID">   140</i>
   <i name="CSHIFT">     -0.10000000</i>
   <i type="logical" name="SELFENERGY"> F  </i>
   <i type="logical" name="LSPECTRAL"> F  </i>
   <i type="logical" name="LSPECTRALGW"> F  </i>
   <i type="logical" name="LSINGLES"> F  </i>
   <i type="logical" name="LFERMIGW"> F  </i>
   <i type="logical" name="ODDONLYGW"> F  </i>
   <i type="logical" name="EVENONLYGW"> F  </i>
   <i type="int" name="NKREDLFX">     1</i>
   <i type="int" name="NKREDLFY">     1</i>
   <i type="int" name="NKREDLFZ">     1</i>
   <i type="int" name="MAXMEM">  2800</i>
   <i type="int" name="TELESCOPE">     0</i>
   <i type="int" name="TAUPAR">     1</i>
   <i type="int" name="OMEGAPAR">    -1</i>
   <i name="LAMBDA">      1.00000000</i>
  </separator>
  <separator name="External order field" >
   <i name="OFIELD_KAPPA">      0.00000000</i>
   <v name="OFIELD_K">      0.00000000      0.00000000      0.00000000</v>
   <i name="OFIELD_Q6_NEAR">      0.00000000</i>
   <i name="OFIELD_Q6_FAR">      0.00000000</i>
   <i name="OFIELD_A">      0.00000000</i>
  </separator>
 </parameters>
 <atominfo>
  <atoms>       2 </atoms>
  <types>       1 </types>
  <array name="atoms" >
   <dimension dim="1">ion</dimension>
   <field type="string">element</field>
   <field type="int">atomtype</field>
   <set>
    <rc><c>Si</c><c>   1</c></rc>
    <rc><c>Si</c><c>   1</c></rc>
   </set>
  </array>
  <array name="atomtypes" >
   <dimension dim="1">type</dimension>
   <field type="int">atomspertype</field>
   <field type="string">element</field>
   <field>mass</field>
   <field>valence</field>
   <field type="string">pseudopotential</field>
   <set>
    <rc><c>   2</c><c>Si</c><c>     28.08500000</c><c>      4.00000000</c><c> PAW_PBE Si 05Jan2001                   </c></rc>
   </set>
  </array>
 </atominfo>
 <structure name="initialpos" >
  <crystal>
   <varray name="basis" >
    <v>      -2.45000000       2.45000000       1.27400000 </v>
    <v>       2.45000000      -2.45000000       1.27400000 </v>
    <v>       2.45000000       2.45000000      -1.27400000 </v>
   </varray>
   <i name="volume">     30.58874000 </i>
   <varray name="rec_basis" >
    <v>       0.00000000       0.20408163       0.39246468 </v>
    <v>       0.20408163       0.00000000       0.39246468 </v>
    <v>       0.20408163       0.20408163      -0.00000000 </v>
   </varray>
  </crystal>
  <varray name="positions" >
   <v>       0.25000000       0.75000000       0.50000000 </v>
   <v>       0.00000000       0.00000000       0.00000000 </v>
  </varray>
 </structure>
 <calculation>
  <scstep>
   <time name="dav">    0.44    0.44</time>
   <time name="total">    0.49    0.50</time>
   <energy>
    <i name="alphaZ">      4.40202223 </i>
    <i name="ewald">   -265.18101312 </i>
    <i name="hartreedc">     -2.51830330 </i>
    <i name="XCdc">    -17.53618912 </i>
    <i name="pawpsdc">     72.38504984 </i>
    <i name="pawaedc">    -37.31205863 </i>
    <i name="eentropy">     -0.01645072 </i>
    <i name="bandstr">     29.56555231 </i>
    <i name="atom">    206.09183643 </i>
    <i name="e_fr_energy">    -10.11955407 </i>
    <i name="e_wo_entrp">    -10.10310335 </i>
    <i name="e_0_energy">    -10.11132871 </i>
   </energy>
  </scstep>
  <scstep>
   <time name="dav">    0.42    0.42</time>
   <time name="total">    0.44    0.45</time>
   <energy>
    <i name="alphaZ">      4.40202223 </i>
    <i name="ewald">   -265.18101312 </i>
    <i name="hartreedc">     -2.51839683 </i>
    <i name="XCdc">    -17.53615721 </i>
    <i name="pawpsdc">     72.38527418 </i>
    <i name="pawaedc">    -37.31227591 </i>
    <i name="eentropy">     -0.01645072 </i>
    <i name="bandstr">     29.56560686 </i>
    <i name="atom">    206.09183643 </i>
    <i name="e_fr_energy">    -10.11955409 </i>
    <i name="e_wo_entrp">    -10.10310336 </i>
    <i name="e_0_energy">    -10.11132873 </i>
   </energy>
  </scstep>
  <structure>
   <crystal>
    <varray name="basis" >
     <v>      -2.45000000       2.45000000       1.27400000 </v>
     <v>       2.45000000      -2.45000000       1.27400000 </v>
     <v>       2.45000000       2.45000000      -1.27400000 </v>
    </varray>
    <i name="volume">     30.58874000 </i>
    <varray name="rec_basis" >
     <v>       0.00000000       0.20408163       0.39246468 </v>
     <v>       0.20408163       0.00000000       0.39246468 </v>
     <v>       0.20408163       0.20408163      -0.00000000 </v>
    </varray>
   </crystal>
   <varray name="positions" >
    <v>       0.25000000       0.75000000       0.50000000 </v>
    <v>       0.00000000       0.00000000       0.00000000 </v>
   </varray>
  </structure>
  <varray name="forces" >
   <v>       0.00000000       0.00000000      -0.00000000 </v>
   <v>      -0.00000000      -0.00000000       0.00000000 </v>
  </varray>
  <varray name="stress" >
   <v>      -7.27083097       0.00000000       0.00000000 </v>
   <v>      -0.00000000      -7.27083097       0.00000000 </v>
   <v>       0.00000000       0.00000000      36.95048421 </v>
  </varray>
  <energy>
   <i name="e_fr_energy">    -10.11955409 </i>
   <i name="e_wo_entrp">    -10.11132873 </i>
   <i name="e_0_energy">     -0.01645072 </i>
  </energy>
  <time name="totalsc">    1.60    2.11</time>
  <eigenvalues>
   <array>
    <dimension dim="1">band</dimension>
    <dimension dim="2">kpoint</dimension>
    <dimension dim="3">spin</dimension>
    <field>eigene</field>
    <field>occ</field>
    <set>
     <set comment="spin 1">
      <set comment="kpoint 1">
       <r>   -4.2723    1.0000 </r>
       <r>    4.7418    1.0000 </r>
       <r>    6.6129    1.0000 </r>
       <r>    7.7617    1.0000 </r>
       <r>   11.6101    0.0000 </r>
       <r>   15.1464    0.0000 </r>
       <r>   16.1774    0.0000 </r>
       <r>   17.0163    0.0000 </r>
      </set>
      <set comment="kpoint 2">
       <r>   -3.4278    1.0000 </r>
       <r>    4.4679    1.0000 </r>
       <r>    6.8768    1.0000 </r>
       <r>    9.1717    0.3412 </r>
       <r>   12.6825    0.0000 </r>
       <r>   13.1217    0.0000 </r>
       <r>   13.5022    0.0000 </r>
       <r>   15.4329    0.0000 </r>
      </set>
      <set comment="kpoint 3">
       <r>   -2.0298    1.0000 </r>
       <r>    4.6768    1.0000 </r>
       <r>    7.1958    1.0000 </r>
       <r>    8.6227    0.9997 </r>
       <r>   10.7440    0.0000 </r>
       <r>   12.0488    0.0000 </r>
       <r>   13.7829    0.0000 </r>
       <r>   14.4723    0.0000 </r>
      </set>
      <set comment="kpoint 4">
       <r>   -0.0945    1.0000 </r>
       <r>    5.1267    1.0000 </r>
       <r>    5.6278    1.0000 </r>
       <r>    7.6171    1.0000 </r>
       <r>    8.9266    0.9073 </r>
       <r>   11.9012    0.0000 </r>
       <r>   13.7757    0.0000 </r>
       <r>   14.2380    0.0000 </r>
      </set>
      <set comment="kpoint 5">
       <r>    2.1041    1.0000 </r>
       <r>    2.6519    1.0000 </r>
       <r>    6.5290    1.0000 </r>
       <r>    6.6852    1.0000 </r>
       <r>    8.8361    0.9752 </r>
       <r>   10.8883    0.0000 </r>
       <r>   13.5867    0.0000 </r>
       <r>   14.6561    0.0000 </r>
      </set>
      <set comment="kpoint 6">
       <r>   -4.5546    1.0000 </r>
       <r>    5.1793    1.0000 </r>
       <r>    6.0658    1.0000 </r>
       <r>    7.4342    1.0000 </r>
       <r>   11.0128    0.0000 </r>
       <r>   15.6107    0.0000 </r>
       <r>   17.4291    0.0000 </r>
       <r>   18.2294    0.0000 </r>
      </set>
      <set comment="kpoint 7">
       <r>   -2.1469    1.0000 </r>
       <r>    4.6395    1.0000 </r>
       <r>    8.1796    1.0000 </r>
       <r>    9.1075    0.5178 </r>
       <r>   10.1926    0.0000 </r>
       <r>   11.0332    0.0000 </r>
       <r>   14.5992    0.0000 </r>
       <r>   14.6058    0.0000 </r>
      </set>
      <set comment="kpoint 8">
       <r>   -0.3255    1.0000 </r>
       <r>    5.2345    1.0000 </r>
       <r>    6.2233    1.0000 </r>
       <r>    7.1515    1.0000 </r>
       <r>    9.8268    0.0000 </r>
       <r>   12.4583    0.0000 </r>
       <r>   12.8778    0.0000 </r>
       <r>   13.7746    0.0000 </r>
      </set>
      <set comment="kpoint 9">
       <r>    1.9718    1.0000 </r>
       <r>    3.2271    1.0000 </r>
       <r>    5.3568    1.0000 </r>
       <r>    6.3900    1.0000 </r>
       <r>    9.9078    0.0000 </r>
       <r>   11.8557    0.0000 </r>
       <r>   12.8768    0.0000 </r>
       <r>   15.3584    0.0000 </r>
      </set>
      <set comment="kpoint 10">
       <r>    0.5964    1.0000 </r>
       <r>    3.9116    1.0000 </r>
       <r>    4.9756    1.0000 </r>
       <r>    7.6606    1.0000 </r>
       <r>    9.2480    0.1715 </r>
       <r>   12.2517    0.0000 </r>
       <r>   13.5255    0.0000 </r>
       <r>   15.2346    0.0000 </r>
      </set>
      <set comment="kpoint 11">
       <r>   -1.4440    1.0000 </r>
       <r>    3.1043    1.0000 </r>
       <r>    7.5911    1.0000 </r>
       <r>    8.2350    1.0000 </r>
       <r>   10.3889    0.0000 </r>
       <r>   12.6109    0.0000 </r>
       <r>   12.8851    0.0000 </r>
       <r>   15.3715    0.0000 </r>
      </set>
      <set comment="kpoint 12">
       <r>   -2.9547    1.0000 </r>
       <r>    2.7756    1.0000 </r>
       <r>    7.2938    1.0000 </r>
       <r>    9.8605    0.0000 </r>
       <r>   12.0478    0.0000 </r>
       <r>   12.5617    0.0000 </r>
       <r>   14.1185    0.0000 </r>
       <r>   15.5979    0.0000 </r>
      </set>
      <set comment="kpoint 13">
       <r>   -3.9156    1.0000 </r>
       <r>    2.9655    1.0000 </r>
       <r>    6.9457    1.0000 </r>
       <r>    8.5927    0.9999 </r>
       <r>   13.3168    0.0000 </r>
       <r>   13.6003    0.0000 </r>
       <r>   15.0460    0.0000 </r>
       <r>   16.5278    0.0000 </r>
      </set>
      <set comment="kpoint 14">
       <r>   -4.3166    1.0000 </r>
       <r>    3.6311    1.0000 </r>
       <r>    6.1019    1.0000 </r>
       <r>    8.4971    1.0000 </r>
       <r>   12.3245    0.0000 </r>
       <r>   13.7922    0.0000 </r>
       <r>   16.3229    0.0000 </r>
       <r>   19.2162    0.0000 </r>
      </set>
      <set comment="kpoint 15">
       <r>   -4.1534    1.0000 </r>
       <r>    4.4181    1.0000 </r>
       <r>    5.7045    1.0000 </r>
       <r>    8.8799    0.9510 </r>
       <r>   12.1386    0.0000 </r>
       <r>   13.9058    0.0000 </r>
       <r>   16.0165    0.0000 </r>
       <r>   17.5386    0.0000 </r>
      </set>
      <set comment="kpoint 16">
       <r>    1.8775    1.0000 </r>
       <r>    4.1518    1.0000 </r>
       <r>    4.2333    1.0000 </r>
       <r>    6.3117    1.0000 </r>
       <r>   10.5589    0.0000 </r>
       <r>   11.7461    0.0000 </r>
       <r>   13.6237    0.0000 </r>
       <r>   14.2342    0.0000 </r>
      </set>
      <set comment="kpoint 17">
       <r>    1.5078    1.0000 </r>
       <r>    2.6264    1.0000 </r>
       <r>    4.7309    1.0000 </r>
       <r>    7.6365    1.0000 </r>
       <r>    9.8393    0.0000 </r>
       <r>   11.2339    0.0000 </r>
       <r>   14.9159    0.0000 </r>
       <r>   15.8182    0.0000 </r>
      </set>
      <set comment="kpoint 18">
       <r>   -0.6286    1.0000 </r>
       <r>    1.6627    1.0000 </r>
       <r>    7.7626    1.0000 </r>
       <r>    8.3895    1.0000 </r>
       <r>    9.9835    0.0000 </r>
       <r>   11.7258    0.0000 </r>
       <r>   13.4787    0.0000 </r>
       <r>   15.4691    0.0000 </r>
      </set>
      <set comment="kpoint 19">
       <r>   -2.2478    1.0000 </r>
       <r>    1.2168    1.0000 </r>
       <r>    7.9371    1.0000 </r>
       <r>   10.3714    0.0000 </r>
       <r>   11.1071    0.0000 </r>
       <r>   12.1626    0.0000 </r>
       <r>   13.5184    0.0000 </r>
       <r>   14.5141    0.0000 </r>
      </set>
      <set comment="kpoint 20">
       <r>   -3.3231    1.0000 </r>
       <r>    1.3074    1.0000 </r>
       <r>    7.5004    1.0000 </r>
       <r>    9.3300    0.0632 </r>
       <r>   11.8745    0.0000 </r>
       <r>   13.6934    0.0000 </r>
       <r>   15.5489    0.0000 </r>
       <r>   16.1370    0.0000 </r>
      </set>
      <set comment="kpoint 21">
       <r>   -3.8415    1.0000 </r>
       <r>    1.9215    1.0000 </r>
       <r>    6.5314    1.0000 </r>
       <r>    9.2724    0.1311 </r>
       <r>   12.0762    0.0000 </r>
       <r>   14.5156    0.0000 </r>
       <r>   14.8286    0.0000 </r>
       <r>   19.0860    0.0000 </r>
      </set>
      <set comment="kpoint 22">
       <r>   -3.7973    1.0000 </r>
       <r>    3.0049    1.0000 </r>
       <r>    5.6783    1.0000 </r>
       <r>    9.9416    0.0000 </r>
       <r>   12.1997    0.0000 </r>
       <r>   13.7370    0.0000 </r>
       <r>   15.4010    0.0000 </r>
       <r>   16.9902    0.0000 </r>
      </set>
      <set comment="kpoint 23">
       <r>   -3.1914    1.0000 </r>
       <r>    4.1851    1.0000 </r>
       <r>    5.6588    1.0000 </r>
       <r>   10.3500    0.0000 </r>
       <r>   12.3823    0.0000 </r>
       <r>   12.6532    0.0000 </r>
       <r>   13.9037    0.0000 </r>
       <r>   15.0954    0.0000 </r>
      </set>
      <set comment="kpoint 24">
       <r>    0.4076    1.0000 </r>
       <r>    0.4161    1.0000 </r>
       <r>    7.7064    1.0000 </r>
       <r>    8.7757    0.9916 </r>
       <r>    9.6839    0.0000 </r>
       <r>   11.3125    0.0000 </r>
       <r>   14.0981    0.0000 </r>
       <r>   14.8763    0.0000 </r>
      </set>
      <set comment="kpoint 25">
       <r>   -1.3117    1.0000 </r>
       <r>   -0.1525    1.0000 </r>
       <r>    8.7784    0.9912 </r>
       <r>    9.7744    0.0000 </r>
       <r>   10.9906    0.0000 </r>
       <r>   12.1983    0.0000 </r>
       <r>   13.2396    0.0000 </r>
       <r>   13.5484    0.0000 </r>
      </set>
      <set comment="kpoint 26">
       <r>   -2.4978    1.0000 </r>
       <r>   -0.1717    1.0000 </r>
       <r>    8.2786    1.0000 </r>
       <r>   10.1746    0.0000 </r>
       <r>   10.4874    0.0000 </r>
       <r>   12.3798    0.0000 </r>
       <r>   15.9020    0.0000 </r>
       <r>   15.9048    0.0000 </r>
      </set>
      <set comment="kpoint 27">
       <r>   -3.1314    1.0000 </r>
       <r>    0.3514    1.0000 </r>
       <r>    7.2013    1.0000 </r>
       <r>   10.0675    0.0000 </r>
       <r>   10.5487    0.0000 </r>
       <r>   13.4051    0.0000 </r>
       <r>   17.0735    0.0000 </r>
       <r>   18.8618    0.0000 </r>
      </set>
      <set comment="kpoint 28">
       <r>   -3.2057    1.0000 </r>
       <r>    1.3988    1.0000 </r>
       <r>    6.1847    1.0000 </r>
       <r>   10.5807    0.0000 </r>
       <r>   10.7794    0.0000 </r>
       <r>   14.5153    0.0000 </r>
       <r>   15.8513    0.0000 </r>
       <r>   16.2802    0.0000 </r>
      </set>
      <set comment="kpoint 29">
       <r>   -2.7198    1.0000 </r>
       <r>    2.9040    1.0000 </r>
       <r>    5.6584    1.0000 </r>
       <r>   10.5232    0.0000 </r>
       <r>   11.1452    0.0000 </r>
       <r>   12.7554    0.0000 </r>
       <r>   14.6647    0.0000 </r>
       <r>   15.9055    0.0000 </r>
      </set>
      <set comment="kpoint 30">
       <r>   -1.6789    1.0000 </r>
       <r>    4.4764    1.0000 </r>
       <r>    6.0317    1.0000 </r>
       <r>    7.9777    1.0000 </r>
       <r>   10.9533    0.0000 </r>
       <r>   13.0233    0.0000 </r>
       <r>   13.8137    0.0000 </r>
       <r>   13.8435    0.0000 </r>
      </set>
      <set comment="kpoint 31">
       <r>   -1.4449    1.0000 </r>
       <r>   -1.4449    1.0000 </r>
       <r>    9.2672    0.1392 </r>
       <r>    9.2672    0.1392 </r>
       <r>   11.2007    0.0000 </r>
       <r>   11.2007    0.0000 </r>
       <r>   15.8313    0.0000 </r>
       <r>   15.8313    0.0000 </r>
      </set>
      <set comment="kpoint 32">
       <r>   -2.1913    1.0000 </r>
       <r>   -1.0270    1.0000 </r>
       <r>    8.0961    1.0000 </r>
       <r>    9.2159    0.2353 </r>
       <r>   11.0064    0.0000 </r>
       <r>   12.1204    0.0000 </r>
       <r>   18.6306    0.0000 </r>
       <r>   18.7090    0.0000 </r>
      </set>
      <set comment="kpoint 33">
       <r>   -2.3822    1.0000 </r>
       <r>   -0.0655    1.0000 </r>
       <r>    6.9550    1.0000 </r>
       <r>    9.1748    0.3334 </r>
       <r>   11.5950    0.0000 </r>
       <r>   13.6064    0.0000 </r>
       <r>   15.4132    0.0000 </r>
       <r>   16.8704    0.0000 </r>
      </set>
      <set comment="kpoint 34">
       <r>   -2.0158    1.0000 </r>
       <r>    1.4143    1.0000 </r>
       <r>    6.2462    1.0000 </r>
       <r>    9.4522    0.0084 </r>
       <r>   10.6222    0.0000 </r>
       <r>   13.3576    0.0000 </r>
       <r>   14.4150    0.0000 </r>
       <r>   16.4101    0.0000 </r>
      </set>
      <set comment="kpoint 35">
       <r>   -1.0964    1.0000 </r>
       <r>    3.3312    1.0000 </r>
       <r>    6.0888    1.0000 </r>
       <r>    7.4805    1.0000 </r>
       <r>   10.0828    0.0000 </r>
       <r>   12.4863    0.0000 </r>
       <r>   14.4666    0.0000 </r>
       <r>   15.2439    0.0000 </r>
      </set>
      <set comment="kpoint 36">
       <r>    0.3641    1.0000 </r>
       <r>    4.5764    1.0000 </r>
       <r>    5.4548    1.0000 </r>
       <r>    6.8167    1.0000 </r>
       <r>    9.2901    0.1064 </r>
       <r>   11.8674    0.0000 </r>
       <r>   12.4701    0.0000 </r>
       <r>   15.6648    0.0000 </r>
      </set>
      <set comment="kpoint 37">
       <r>   -1.3333    1.0000 </r>
       <r>   -1.3315    1.0000 </r>
       <r>    7.9466    1.0000 </r>
       <r>    7.9701    1.0000 </r>
       <r>   12.3801    0.0000 </r>
       <r>   12.7539    0.0000 </r>
       <r>   15.2374    0.0000 </r>
       <r>   16.8412    0.0000 </r>
      </set>
      <set comment="kpoint 38">
       <r>   -1.0845    1.0000 </r>
       <r>    0.0654    1.0000 </r>
       <r>    7.1112    1.0000 </r>
       <r>    8.1942    1.0000 </r>
       <r>   10.4599    0.0000 </r>
       <r>   14.1328    0.0000 </r>
       <r>   14.2592    0.0000 </r>
       <r>   15.4157    0.0000 </r>
      </set>
      <set comment="kpoint 39">
       <r>   -0.2867    1.0000 </r>
       <r>    1.9678    1.0000 </r>
       <r>    6.6949    1.0000 </r>
       <r>    7.2223    1.0000 </r>
       <r>    8.8955    0.9387 </r>
       <r>   12.1438    0.0000 </r>
       <r>   15.4333    0.0000 </r>
       <r>   16.5418    0.0000 </r>
      </set>
      <set comment="kpoint 40">
       <r>    1.0459    1.0000 </r>
       <r>    3.9974    1.0000 </r>
       <r>    4.5762    1.0000 </r>
       <r>    6.9728    1.0000 </r>
       <r>    9.1747    0.3336 </r>
       <r>   11.2553    0.0000 </r>
       <r>   12.9617    0.0000 </r>
       <r>   16.7562    0.0000 </r>
      </set>
      <set comment="kpoint 41">
       <r>    1.7431    1.0000 </r>
       <r>    3.0069    1.0000 </r>
       <r>    6.6043    1.0000 </r>
       <r>    7.7231    1.0000 </r>
       <r>    7.9171    1.0000 </r>
       <r>   10.6706    0.0000 </r>
       <r>   12.5250    0.0000 </r>
       <r>   15.6389    0.0000 </r>
      </set>
      <set comment="kpoint 42">
       <r>    0.7333    1.0000 </r>
       <r>    0.7507    1.0000 </r>
       <r>    6.9423    1.0000 </r>
       <r>    7.6389    1.0000 </r>
       <r>    7.9422    1.0000 </r>
       <r>   12.0292    0.0000 </r>
       <r>   16.0194    0.0000 </r>
       <r>   17.0205    0.0000 </r>
      </set>
      <set comment="kpoint 43">
       <r>    1.9383    1.0000 </r>
       <r>    3.0074    1.0000 </r>
       <r>    4.1162    1.0000 </r>
       <r>    7.6175    1.0000 </r>
       <r>    8.5933    0.9999 </r>
       <r>   10.6400    0.0000 </r>
       <r>   14.5427    0.0000 </r>
       <r>   16.3091    0.0000 </r>
      </set>
      <set comment="kpoint 44">
       <r>    1.4276    1.0000 </r>
       <r>    3.7546    1.0000 </r>
       <r>    5.8023    1.0000 </r>
       <r>    7.5135    1.0000 </r>
       <r>    8.7192    0.9974 </r>
       <r>   11.0467    0.0000 </r>
       <r>   11.7890    0.0000 </r>
       <r>   15.1664    0.0000 </r>
      </set>
      <set comment="kpoint 45">
       <r>   -0.5573    1.0000 </r>
       <r>    5.9019    1.0000 </r>
       <r>    6.6725    1.0000 </r>
       <r>    7.7444    1.0000 </r>
       <r>    8.6854    0.9988 </r>
       <r>   11.3019    0.0000 </r>
       <r>   12.8396    0.0000 </r>
       <r>   14.1252    0.0000 </r>
      </set>
      <set comment="kpoint 46">
       <r>    1.3184    1.0000 </r>
       <r>    4.6906    1.0000 </r>
       <r>    4.7392    1.0000 </r>
       <r>    7.5204    1.0000 </r>
       <r>    9.1827    0.3132 </r>
       <r>   10.5031    0.0000 </r>
       <r>   12.9363    0.0000 </r>
       <r>   13.7379    0.0000 </r>
      </set>
      <set comment="kpoint 47">
       <r>   -0.7905    1.0000 </r>
       <r>    6.6653    1.0000 </r>
       <r>    6.9440    1.0000 </r>
       <r>    7.6235    1.0000 </r>
       <r>    9.1534    0.3899 </r>
       <r>   11.6391    0.0000 </r>
       <r>   11.7157    0.0000 </r>
       <r>   12.8696    0.0000 </r>
      </set>
      <set comment="kpoint 48">
       <r>   -2.3825    1.0000 </r>
       <r>    6.0417    1.0000 </r>
       <r>    7.2255    1.0000 </r>
       <r>    9.0320    0.7186 </r>
       <r>   10.7095    0.0000 </r>
       <r>   11.5173    0.0000 </r>
       <r>   13.0937    0.0000 </r>
       <r>   14.4326    0.0000 </r>
      </set>
      <set comment="kpoint 49">
       <r>   -2.5003    1.0000 </r>
       <r>    6.3496    1.0000 </r>
       <r>    7.9883    1.0000 </r>
       <r>    8.8968    0.9376 </r>
       <r>   10.5166    0.0000 </r>
       <r>   11.0767    0.0000 </r>
       <r>   13.1635    0.0000 </r>
       <r>   13.8615    0.0000 </r>
      </set>
      <set comment="kpoint 50">
       <r>   -3.6650    1.0000 </r>
       <r>    5.9943    1.0000 </r>
       <r>    6.8369    1.0000 </r>
       <r>    8.1730    1.0000 </r>
       <r>   11.8960    0.0000 </r>
       <r>   13.4092    0.0000 </r>
       <r>   13.7762    0.0000 </r>
       <r>   16.1558    0.0000 </r>
      </set>
      <set comment="kpoint 51">
       <r>   -4.3914    1.0000 </r>
       <r>    6.4205    1.0000 </r>
       <r>    6.5016    1.0000 </r>
       <r>    6.5016    1.0000 </r>
       <r>   10.8863    0.0000 </r>
       <r>   16.4469    0.0000 </r>
       <r>   16.6042    0.0000 </r>
       <r>   17.3377    0.0000 </r>
      </set>
      <set comment="kpoint 52">
       <r>   -1.5602    1.0000 </r>
       <r>    3.0151    1.0000 </r>
       <r>    8.3677    1.0000 </r>
       <r>    8.9053    0.9298 </r>
       <r>   10.1426    0.0000 </r>
       <r>   11.3749    0.0000 </r>
       <r>   14.0977    0.0000 </r>
       <r>   14.7704    0.0000 </r>
      </set>
      <set comment="kpoint 53">
       <r>    0.3690    1.0000 </r>
       <r>    3.7499    1.0000 </r>
       <r>    5.7968    1.0000 </r>
       <r>    6.7972    1.0000 </r>
       <r>   10.5796    0.0000 </r>
       <r>   13.2607    0.0000 </r>
       <r>   13.7426    0.0000 </r>
       <r>   14.5242    0.0000 </r>
      </set>
      <set comment="kpoint 54">
       <r>    2.5634    1.0000 </r>
       <r>    3.0800    1.0000 </r>
       <r>    4.9143    1.0000 </r>
       <r>    5.2366    1.0000 </r>
       <r>   11.1966    0.0000 </r>
       <r>   13.0038    0.0000 </r>
       <r>   14.0979    0.0000 </r>
       <r>   14.4359    0.0000 </r>
      </set>
      <set comment="kpoint 55">
       <r>   -4.0791    1.0000 </r>
       <r>    3.3450    1.0000 </r>
       <r>    4.8480    1.0000 </r>
       <r>   10.0605    0.0000 </r>
       <r>   12.0430    0.0000 </r>
       <r>   13.1616    0.0000 </r>
       <r>   17.8276    0.0000 </r>
       <r>   18.1206    0.0000 </r>
      </set>
      <set comment="kpoint 56">
       <r>    2.6320    1.0000 </r>
       <r>    3.7826    1.0000 </r>
       <r>    3.9555    1.0000 </r>
       <r>    5.0224    1.0000 </r>
       <r>   11.9704    0.0000 </r>
       <r>   13.3782    0.0000 </r>
       <r>   14.4387    0.0000 </r>
       <r>   14.5281    0.0000 </r>
      </set>
      <set comment="kpoint 57">
       <r>    1.2875    1.0000 </r>
       <r>    2.4214    1.0000 </r>
       <r>    5.5836    1.0000 </r>
       <r>    6.6108    1.0000 </r>
       <r>   11.4512    0.0000 </r>
       <r>   12.7378    0.0000 </r>
       <r>   14.0047    0.0000 </r>
       <r>   15.0692    0.0000 </r>
      </set>
      <set comment="kpoint 58">
       <r>   -0.7428    1.0000 </r>
       <r>    1.5574    1.0000 </r>
       <r>    8.4483    1.0000 </r>
       <r>    8.6568    0.9994 </r>
       <r>   10.5536    0.0000 </r>
       <r>   11.8960    0.0000 </r>
       <r>   12.8473    0.0000 </r>
       <r>   14.0351    0.0000 </r>
      </set>
      <set comment="kpoint 59">
       <r>   -3.6056    1.0000 </r>
       <r>    2.0513    1.0000 </r>
       <r>    4.8451    1.0000 </r>
       <r>   10.3223    0.0000 </r>
       <r>   11.2024    0.0000 </r>
       <r>   15.0040    0.0000 </r>
       <r>   16.6687    0.0000 </r>
       <r>   18.5374    0.0000 </r>
      </set>
      <set comment="kpoint 60">
       <r>   -3.4429    1.0000 </r>
       <r>    2.8011    1.0000 </r>
       <r>    4.4190    1.0000 </r>
       <r>   10.4513    0.0000 </r>
       <r>   11.5613    0.0000 </r>
       <r>   14.7881    0.0000 </r>
       <r>   14.9798    0.0000 </r>
       <r>   18.1542    0.0000 </r>
      </set>
      <set comment="kpoint 61">
       <r>    0.3004    1.0000 </r>
       <r>    0.3004    1.0000 </r>
       <r>    8.5106    1.0000 </r>
       <r>    8.5107    1.0000 </r>
       <r>   11.3588    0.0000 </r>
       <r>   11.3589    0.0000 </r>
       <r>   13.1139    0.0000 </r>
       <r>   13.1139    0.0000 </r>
      </set>
      <set comment="kpoint 62">
       <r>   -2.8985    1.0000 </r>
       <r>    0.5497    1.0000 </r>
       <r>    5.4419    1.0000 </r>
       <r>    8.7805    0.9908 </r>
       <r>   12.1130    0.0000 </r>
       <r>   15.3624    0.0000 </r>
       <r>   17.3395    0.0000 </r>
       <r>   18.3685    0.0000 </r>
      </set>
      <set comment="kpoint 63">
       <r>   -2.8547    1.0000 </r>
       <r>    1.6307    1.0000 </r>
       <r>    4.4829    1.0000 </r>
       <r>    8.8273    0.9786 </r>
       <r>   12.5649    0.0000 </r>
       <r>   14.6505    0.0000 </r>
       <r>   16.7641    0.0000 </r>
       <r>   17.6785    0.0000 </r>
      </set>
      <set comment="kpoint 64">
       <r>   -2.2517    1.0000 </r>
       <r>    2.8020    1.0000 </r>
       <r>    4.4750    1.0000 </r>
       <r>    9.2877    0.1095 </r>
       <r>   10.4740    0.0000 </r>
       <r>   14.2195    0.0000 </r>
       <r>   15.6666    0.0000 </r>
       <r>   16.3903    0.0000 </r>
      </set>
      <set comment="kpoint 65">
       <r>   -1.9628    1.0000 </r>
       <r>   -0.8075    1.0000 </r>
       <r>    6.3224    1.0000 </r>
       <r>    7.4397    1.0000 </r>
       <r>   13.0653    0.0000 </r>
       <r>   14.1479    0.0000 </r>
       <r>   18.1139    0.0000 </r>
       <r>   18.1946    0.0000 </r>
      </set>
      <set comment="kpoint 66">
       <r>   -2.0371    1.0000 </r>
       <r>    0.2437    1.0000 </r>
       <r>    5.1781    1.0000 </r>
       <r>    7.3877    1.0000 </r>
       <r>   13.0727    0.0000 </r>
       <r>   14.7178    0.0000 </r>
       <r>   16.6596    0.0000 </r>
       <r>   18.0126    0.0000 </r>
      </set>
      <set comment="kpoint 67">
       <r>   -1.5542    1.0000 </r>
       <r>    1.7543    1.0000 </r>
       <r>    4.6256    1.0000 </r>
       <r>    7.8135    1.0000 </r>
       <r>   10.0946    0.0000 </r>
       <r>   15.3321    0.0000 </r>
       <r>   15.7812    0.0000 </r>
       <r>   17.7493    0.0000 </r>
      </set>
      <set comment="kpoint 68">
       <r>   -0.5208    1.0000 </r>
       <r>    3.3326    1.0000 </r>
       <r>    5.0296    1.0000 </r>
       <r>    6.9409    1.0000 </r>
       <r>    8.7403    0.9959 </r>
       <r>   13.2422    0.0000 </r>
       <r>   14.8796    0.0000 </r>
       <r>   16.6120    0.0000 </r>
      </set>
      <set comment="kpoint 69">
       <r>   -1.0002    1.0000 </r>
       <r>   -0.9965    1.0000 </r>
       <r>    6.1625    1.0000 </r>
       <r>    6.1675    1.0000 </r>
       <r>   13.2040    0.0000 </r>
       <r>   15.0308    0.0000 </r>
       <r>   16.0249    0.0000 </r>
       <r>   18.0281    0.0000 </r>
      </set>
      <set comment="kpoint 70">
       <r>   -0.6352    1.0000 </r>
       <r>    0.4879    1.0000 </r>
       <r>    5.4203    1.0000 </r>
       <r>    6.5033    1.0000 </r>
       <r>    9.9006    0.0000 </r>
       <r>   15.5629    0.0000 </r>
       <r>   16.4027    0.0000 </r>
       <r>   17.6353    0.0000 </r>
      </set>
      <set comment="kpoint 71">
       <r>    0.2757    1.0000 </r>
       <r>    2.4157    1.0000 </r>
       <r>    5.2672    1.0000 </r>
       <r>    6.5955    1.0000 </r>
       <r>    7.4185    1.0000 </r>
       <r>   13.4324    0.0000 </r>
       <r>   15.9850    0.0000 </r>
       <r>   17.6681    0.0000 </r>
      </set>
      <set comment="kpoint 72">
       <r>    1.7077    1.0000 </r>
       <r>    3.6832    1.0000 </r>
       <r>    4.5889    1.0000 </r>
       <r>    6.0636    1.0000 </r>
       <r>    8.4882    1.0000 </r>
       <r>   11.5775    0.0000 </r>
       <r>   12.9744    0.0000 </r>
       <r>   17.1442    0.0000 </r>
      </set>
      <set comment="kpoint 73">
       <r>    1.2619    1.0000 </r>
       <r>    1.2897    1.0000 </r>
       <r>    6.0365    1.0000 </r>
       <r>    6.1551    1.0000 </r>
       <r>    6.7005    1.0000 </r>
       <r>   13.4067    0.0000 </r>
       <r>   17.3508    0.0000 </r>
       <r>   17.3823    0.0000 </r>
      </set>
      <set comment="kpoint 74">
       <r>    2.5357    1.0000 </r>
       <r>    3.3505    1.0000 </r>
       <r>    3.9384    1.0000 </r>
       <r>    6.4236    1.0000 </r>
       <r>    7.3796    1.0000 </r>
       <r>   11.7215    0.0000 </r>
       <r>   14.1628    0.0000 </r>
       <r>   15.9962    0.0000 </r>
      </set>
      <set comment="kpoint 75">
       <r>    1.0923    1.0000 </r>
       <r>    4.4965    1.0000 </r>
       <r>    6.0461    1.0000 </r>
       <r>    7.4405    1.0000 </r>
       <r>    8.4336    1.0000 </r>
       <r>   10.7179    0.0000 </r>
       <r>   11.6219    0.0000 </r>
       <r>   14.2599    0.0000 </r>
      </set>
      <set comment="kpoint 76">
       <r>    0.9793    1.0000 </r>
       <r>    5.3539    1.0000 </r>
       <r>    5.4058    1.0000 </r>
       <r>    7.7024    1.0000 </r>
       <r>    7.9674    1.0000 </r>
       <r>   10.6580    0.0000 </r>
       <r>   12.5227    0.0000 </r>
       <r>   13.1183    0.0000 </r>
      </set>
      <set comment="kpoint 77">
       <r>   -1.0247    1.0000 </r>
       <r>    7.4927    1.0000 </r>
       <r>    7.7838    1.0000 </r>
       <r>    8.3827    1.0000 </r>
       <r>    8.4871    1.0000 </r>
       <r>   10.5660    0.0000 </r>
       <r>   11.5439    0.0000 </r>
       <r>   12.1033    0.0000 </r>
      </set>
      <set comment="kpoint 78">
       <r>   -2.6183    1.0000 </r>
       <r>    7.9127    1.0000 </r>
       <r>    7.9127    1.0000 </r>
       <r>    7.9239    1.0000 </r>
       <r>   10.7241    0.0000 </r>
       <r>   11.1830    0.0000 </r>
       <r>   12.6776    0.0000 </r>
       <r>   13.4743    0.0000 </r>
      </set>
      <set comment="kpoint 79">
       <r>    3.4151    1.0000 </r>
       <r>    3.4152    1.0000 </r>
       <r>    4.0764    1.0000 </r>
       <r>    4.0764    1.0000 </r>
       <r>   13.2894    0.0000 </r>
       <r>   13.2894    0.0000 </r>
       <r>   15.0707    0.0000 </r>
       <r>   15.0707    0.0000 </r>
      </set>
      <set comment="kpoint 80">
       <r>   -3.1350    1.0000 </r>
       <r>    1.9451    1.0000 </r>
       <r>    3.6450    1.0000 </r>
       <r>    8.5972    0.9999 </r>
       <r>   12.9632    0.0000 </r>
       <r>   16.2120    0.0000 </r>
       <r>   17.4231    0.0000 </r>
       <r>   18.3335    0.0000 </r>
      </set>
      <set comment="kpoint 81">
       <r>   -2.4346    1.0000 </r>
       <r>    0.8909    1.0000 </r>
       <r>    3.7949    1.0000 </r>
       <r>    7.0360    1.0000 </r>
       <r>   14.1874    0.0000 </r>
       <r>   16.8198    0.0000 </r>
       <r>   17.8436    0.0000 </r>
       <r>   18.5437    0.0000 </r>
      </set>
      <set comment="kpoint 82">
       <r>   -2.2730    1.0000 </r>
       <r>    1.6320    1.0000 </r>
       <r>    3.3751    1.0000 </r>
       <r>    7.1835    1.0000 </r>
       <r>   13.1613    0.0000 </r>
       <r>   15.5283    0.0000 </r>
       <r>   18.0338    0.0000 </r>
       <r>   19.0064    0.0000 </r>
      </set>
      <set comment="kpoint 83">
       <r>   -1.5113    1.0000 </r>
       <r>   -0.3832    1.0000 </r>
       <r>    4.5978    1.0000 </r>
       <r>    5.6988    1.0000 </r>
       <r>   15.1504    0.0000 </r>
       <r>   16.0374    0.0000 </r>
       <r>   17.9123    0.0000 </r>
       <r>   18.1217    0.0000 </r>
      </set>
      <set comment="kpoint 84">
       <r>   -1.4682    1.0000 </r>
       <r>    0.6985    1.0000 </r>
       <r>    3.6241    1.0000 </r>
       <r>    5.7425    1.0000 </r>
       <r>   13.0747    0.0000 </r>
       <r>   16.6337    0.0000 </r>
       <r>   18.7641    0.0000 </r>
       <r>   19.2174    0.0000 </r>
      </set>
      <set comment="kpoint 85">
       <r>   -0.8699    1.0000 </r>
       <r>    1.8665    1.0000 </r>
       <r>    3.6257    1.0000 </r>
       <r>    6.2939    1.0000 </r>
       <r>    9.6984    0.0000 </r>
       <r>   16.5639    0.0000 </r>
       <r>   17.5166    0.0000 </r>
       <r>   18.1306    0.0000 </r>
      </set>
      <set comment="kpoint 86">
       <r>   -0.4602    1.0000 </r>
       <r>   -0.4552    1.0000 </r>
       <r>    4.5332    1.0000 </r>
       <r>    4.5341    1.0000 </r>
       <r>   13.0132    0.0000 </r>
       <r>   17.3607    0.0000 </r>
       <r>   18.1187    0.0000 </r>
       <r>   19.2471    0.0000 </r>
      </set>
      <set comment="kpoint 87">
       <r>    0.0207    1.0000 </r>
       <r>    1.0558    1.0000 </r>
       <r>    3.9780    1.0000 </r>
       <r>    4.9904    1.0000 </r>
       <r>    9.4966    0.0034 </r>
       <r>   16.9739    0.0000 </r>
       <r>   18.4701    0.0000 </r>
       <r>   19.1653    0.0000 </r>
      </set>
      <set comment="kpoint 88">
       <r>    1.0424    1.0000 </r>
       <r>    2.6370    1.0000 </r>
       <r>    4.3993    1.0000 </r>
       <r>    5.8800    1.0000 </r>
       <r>    6.4231    1.0000 </r>
       <r>   14.6132    0.0000 </r>
       <r>   16.1817    0.0000 </r>
       <r>   18.2415    0.0000 </r>
      </set>
      <set comment="kpoint 89">
       <r>    1.9312    1.0000 </r>
       <r>    1.9736    1.0000 </r>
       <r>    4.8318    1.0000 </r>
       <r>    4.8564    1.0000 </r>
       <r>    6.2579    1.0000 </r>
       <r>   14.9423    0.0000 </r>
       <r>   17.0838    0.0000 </r>
       <r>   17.4771    0.0000 </r>
      </set>
      <set comment="kpoint 90">
       <r>    2.9928    1.0000 </r>
       <r>    3.5913    1.0000 </r>
       <r>    4.1637    1.0000 </r>
       <r>    5.6641    1.0000 </r>
       <r>    6.2305    1.0000 </r>
       <r>   12.9900    0.0000 </r>
       <r>   14.1716    0.0000 </r>
       <r>   15.1737    0.0000 </r>
      </set>
      <set comment="kpoint 91">
       <r>    0.8656    1.0000 </r>
       <r>    5.7932    1.0000 </r>
       <r>    5.8861    1.0000 </r>
       <r>    7.3024    1.0000 </r>
       <r>    7.3024    1.0000 </r>
       <r>   11.5987    0.0000 </r>
       <r>   12.3925    0.0000 </r>
       <r>   12.3925    0.0000 </r>
      </set>
      <set comment="kpoint 92">
       <r>   -1.7473    1.0000 </r>
       <r>    1.0014    1.0000 </r>
       <r>    2.7860    1.0000 </r>
       <r>    5.4812    1.0000 </r>
       <r>   15.6287    0.0000 </r>
       <r>   16.7848    0.0000 </r>
       <r>   18.2143    0.0000 </r>
       <r>   19.7295    0.0000 </r>
      </set>
      <set comment="kpoint 93">
       <r>   -0.8529    1.0000 </r>
       <r>    0.1866    1.0000 </r>
       <r>    3.1390    1.0000 </r>
       <r>    4.1609    1.0000 </r>
       <r>   16.2443    0.0000 </r>
       <r>   16.5303    0.0000 </r>
       <r>   18.7955    0.0000 </r>
       <r>   19.5243    0.0000 </r>
      </set>
      <set comment="kpoint 94">
       <r>   -0.6929    1.0000 </r>
       <r>    0.9233    1.0000 </r>
       <r>    2.7232    1.0000 </r>
       <r>    4.3141    1.0000 </r>
       <r>   12.8575    0.0000 </r>
       <r>   18.4526    0.0000 </r>
       <r>   19.8725    0.0000 </r>
       <r>   20.2309    0.0000 </r>
      </set>
      <set comment="kpoint 95">
       <r>    0.2253    1.0000 </r>
       <r>    0.2319    1.0000 </r>
       <r>    3.1837    1.0000 </r>
       <r>    3.1847    1.0000 </r>
       <r>   12.7803    0.0000 </r>
       <r>   19.3913    0.0000 </r>
       <r>   20.1104    0.0000 </r>
       <r>   20.1639    0.0000 </r>
      </set>
      <set comment="kpoint 96">
       <r>    0.8217    1.0000 </r>
       <r>    1.3970    1.0000 </r>
       <r>    3.1906    1.0000 </r>
       <r>    3.7586    1.0000 </r>
       <r>    9.2895    0.1072 </r>
       <r>   18.0847    0.0000 </r>
       <r>   19.4776    0.0000 </r>
       <r>   19.7411    0.0000 </r>
      </set>
      <set comment="kpoint 97">
       <r>    2.3729    1.0000 </r>
       <r>    2.4325    1.0000 </r>
       <r>    4.1861    1.0000 </r>
       <r>    4.1861    1.0000 </r>
       <r>    6.1326    1.0000 </r>
       <r>   15.9888    0.0000 </r>
       <r>   16.9802    0.0000 </r>
       <r>   16.9802    0.0000 </r>
      </set>
      <set comment="kpoint 98">
       <r>   -0.0495    1.0000 </r>
       <r>    0.5273    1.0000 </r>
       <r>    2.3480    1.0000 </r>
       <r>    2.9179    1.0000 </r>
       <r>   16.3996    0.0000 </r>
       <r>   16.4581    0.0000 </r>
       <r>   20.3044    0.0000 </r>
       <r>   20.8821    0.0000 </r>
      </set>
      <set comment="kpoint 99">
       <r>    0.6822    1.0000 </r>
       <r>    0.6901    1.0000 </r>
       <r>    2.5044    1.0000 </r>
       <r>    2.5044    1.0000 </r>
       <r>   12.6960    0.0000 </r>
       <r>   20.0390    0.0000 </r>
       <r>   21.0433    0.0000 </r>
       <r>   21.0496    0.0000 </r>
      </set>
     </set>
    </set>
   </array>
  </eigenvalues>
  <separator name="orbital magnetization" >
   <v name="MAGDIPOLOUT">      0.00000000      0.00000000      0.00000000</v>
  </separator>
  <dos>
   <i name="efermi">      9.11387107 </i>
   <total>
    <array>
     <dimension dim="1">gridpoints</dimension>
     <dimension dim="2">spin</dimension>
     <field>energy</field>
     <field>total</field>
     <field>integrated</field>
     <set>
      <set comment="spin 1">
       <r>    -6.5546     0.0000     0.0000 </r>
       <r>    -6.4560     0.0000     0.0000 </r>
       <r>    -6.3573     0.0000     0.0000 </r>
       <r>    -6.2586     0.0000     0.0000 </r>
       <r>    -6.1599     0.0000     0.0000 </r>
       <r>    -6.0612     0.0000     0.0000 </r>
       <r>    -5.9626     0.0000     0.0000 </r>
       <r>    -5.8639     0.0000     0.0000 </r>
       <r>    -5.7652     0.0000     0.0000 </r>
       <r>    -5.6665     0.0000     0.0000 </r>
       <r>    -5.5678     0.0000     0.0000 </r>
       <r>    -5.4692     0.0000     0.0000 </r>
       <r>    -5.3705     0.0000     0.0000 </r>
       <r>    -5.2718     0.0000     0.0000 </r>
       <r>    -5.1731     0.0000     0.0000 </r>
       <r>    -5.0744     0.0000     0.0000 </r>
       <r>    -4.9758     0.0001     0.0000 </r>
       <r>    -4.8771     0.0008     0.0001 </r>
       <r>    -4.7784     0.0039     0.0005 </r>
       <r>    -4.6797     0.0124     0.0017 </r>
       <r>    -4.5810     0.0285     0.0045 </r>
       <r>    -4.4824     0.0537     0.0098 </r>
       <r>    -4.3837     0.0898     0.0187 </r>
       <r>    -4.2850     0.1270     0.0312 </r>
       <r>    -4.1863     0.1443     0.0455 </r>
       <r>    -4.0876     0.1408     0.0593 </r>
       <r>    -3.9890     0.1451     0.0737 </r>
       <r>    -3.8903     0.1770     0.0911 </r>
       <r>    -3.7916     0.2133     0.1122 </r>
       <r>    -3.6929     0.2217     0.1340 </r>
       <r>    -3.5942     0.2126     0.1550 </r>
       <r>    -3.4955     0.2186     0.1766 </r>
       <r>    -3.3969     0.2445     0.2007 </r>
       <r>    -3.2982     0.2725     0.2276 </r>
       <r>    -3.1995     0.2896     0.2562 </r>
       <r>    -3.1008     0.2889     0.2847 </r>
       <r>    -3.0021     0.2832     0.3126 </r>
       <r>    -2.9035     0.2885     0.3411 </r>
       <r>    -2.8048     0.2839     0.3691 </r>
       <r>    -2.7061     0.2543     0.3942 </r>
       <r>    -2.6074     0.2354     0.4175 </r>
       <r>    -2.5087     0.2706     0.4442 </r>
       <r>    -2.4101     0.3504     0.4787 </r>
       <r>    -2.3114     0.4242     0.5206 </r>
       <r>    -2.2127     0.4635     0.5663 </r>
       <r>    -2.1140     0.4751     0.6132 </r>
       <r>    -2.0153     0.4507     0.6577 </r>
       <r>    -1.9167     0.3620     0.6934 </r>
       <r>    -1.8180     0.2478     0.7179 </r>
       <r>    -1.7193     0.2083     0.7384 </r>
       <r>    -1.6206     0.2853     0.7666 </r>
       <r>    -1.5219     0.4190     0.8079 </r>
       <r>    -1.4233     0.5025     0.8575 </r>
       <r>    -1.3246     0.4820     0.9051 </r>
       <r>    -1.2259     0.4169     0.9462 </r>
       <r>    -1.1272     0.4026     0.9859 </r>
       <r>    -1.0285     0.4405     1.0294 </r>
       <r>    -0.9298     0.4662     1.0754 </r>
       <r>    -0.8312     0.4734     1.1221 </r>
       <r>    -0.7325     0.4890     1.1704 </r>
       <r>    -0.6338     0.4978     1.2195 </r>
       <r>    -0.5351     0.4781     1.2667 </r>
       <r>    -0.4364     0.4467     1.3108 </r>
       <r>    -0.3378     0.4359     1.3538 </r>
       <r>    -0.2391     0.4567     1.3988 </r>
       <r>    -0.1404     0.4970     1.4479 </r>
       <r>    -0.0417     0.5258     1.4998 </r>
       <r>     0.0570     0.5273     1.5518 </r>
       <r>     0.1556     0.5443     1.6055 </r>
       <r>     0.2543     0.6098     1.6657 </r>
       <r>     0.3530     0.6644     1.7313 </r>
       <r>     0.4517     0.6404     1.7945 </r>
       <r>     0.5504     0.5623     1.8499 </r>
       <r>     0.6490     0.4915     1.8984 </r>
       <r>     0.7477     0.4485     1.9427 </r>
       <r>     0.8464     0.4332     1.9855 </r>
       <r>     0.9451     0.4576     2.0306 </r>
       <r>     1.0438     0.5088     2.0808 </r>
       <r>     1.1424     0.5566     2.1357 </r>
       <r>     1.2411     0.6156     2.1965 </r>
       <r>     1.3398     0.6908     2.2647 </r>
       <r>     1.4385     0.7230     2.3360 </r>
       <r>     1.5372     0.6881     2.4039 </r>
       <r>     1.6359     0.6399     2.4670 </r>
       <r>     1.7345     0.6221     2.5284 </r>
       <r>     1.8332     0.6419     2.5918 </r>
       <r>     1.9319     0.6683     2.6577 </r>
       <r>     2.0306     0.6087     2.7178 </r>
       <r>     2.1293     0.4358     2.7608 </r>
       <r>     2.2279     0.2766     2.7881 </r>
       <r>     2.3266     0.2571     2.8135 </r>
       <r>     2.4253     0.3621     2.8492 </r>
       <r>     2.5240     0.4908     2.8976 </r>
       <r>     2.6227     0.5728     2.9542 </r>
       <r>     2.7213     0.6025     3.0136 </r>
       <r>     2.8200     0.6203     3.0748 </r>
       <r>     2.9187     0.6728     3.1412 </r>
       <r>     3.0174     0.7453     3.2148 </r>
       <r>     3.1161     0.7710     3.2909 </r>
       <r>     3.2147     0.7275     3.3626 </r>
       <r>     3.3134     0.6426     3.4261 </r>
       <r>     3.4121     0.5382     3.4792 </r>
       <r>     3.5108     0.4669     3.5252 </r>
       <r>     3.6095     0.4992     3.5745 </r>
       <r>     3.7081     0.6024     3.6339 </r>
       <r>     3.8068     0.6759     3.7006 </r>
       <r>     3.9055     0.6938     3.7691 </r>
       <r>     4.0042     0.6834     3.8365 </r>
       <r>     4.1029     0.6473     3.9004 </r>
       <r>     4.2015     0.5906     3.9587 </r>
       <r>     4.3002     0.5702     4.0150 </r>
       <r>     4.3989     0.6662     4.0807 </r>
       <r>     4.4976     0.8545     4.1650 </r>
       <r>     4.5963     0.9839     4.2621 </r>
       <r>     4.6950     0.9542     4.3563 </r>
       <r>     4.7936     0.8165     4.4369 </r>
       <r>     4.8923     0.6860     4.5046 </r>
       <r>     4.9910     0.6224     4.5660 </r>
       <r>     5.0897     0.6146     4.6266 </r>
       <r>     5.1884     0.6378     4.6896 </r>
       <r>     5.2870     0.6666     4.7553 </r>
       <r>     5.3857     0.6753     4.8220 </r>
       <r>     5.4844     0.6811     4.8892 </r>
       <r>     5.5831     0.7362     4.9618 </r>
       <r>     5.6818     0.8222     5.0430 </r>
       <r>     5.7804     0.8330     5.1252 </r>
       <r>     5.8791     0.7567     5.1998 </r>
       <r>     5.9778     0.7278     5.2717 </r>
       <r>     6.0765     0.8207     5.3526 </r>
       <r>     6.1752     0.9433     5.4457 </r>
       <r>     6.2738     0.9817     5.5426 </r>
       <r>     6.3725     0.9392     5.6353 </r>
       <r>     6.4712     0.9014     5.7242 </r>
       <r>     6.5699     0.9142     5.8145 </r>
       <r>     6.6686     0.9307     5.9063 </r>
       <r>     6.7672     0.9047     5.9956 </r>
       <r>     6.8659     0.8719     6.0816 </r>
       <r>     6.9646     0.8575     6.1662 </r>
       <r>     7.0633     0.8392     6.2490 </r>
       <r>     7.1620     0.8331     6.3312 </r>
       <r>     7.2607     0.8668     6.4168 </r>
       <r>     7.3593     0.9452     6.5101 </r>
       <r>     7.4580     1.0708     6.6157 </r>
       <r>     7.5567     1.2017     6.7343 </r>
       <r>     7.6554     1.2501     6.8577 </r>
       <r>     7.7541     1.1629     6.9724 </r>
       <r>     7.8527     0.9913     7.0702 </r>
       <r>     7.9514     0.8244     7.1516 </r>
       <r>     8.0501     0.6875     7.2194 </r>
       <r>     8.1488     0.5936     7.2780 </r>
       <r>     8.2475     0.5679     7.3341 </r>
       <r>     8.3461     0.6007     7.3933 </r>
       <r>     8.4448     0.6664     7.4591 </r>
       <r>     8.5435     0.7417     7.5323 </r>
       <r>     8.6422     0.8123     7.6124 </r>
       <r>     8.7409     0.8701     7.6983 </r>
       <r>     8.8395     0.8796     7.7851 </r>
       <r>     8.9382     0.8141     7.8654 </r>
       <r>     9.0369     0.7513     7.9396 </r>
       <r>     9.1356     0.7957     8.0181 </r>
       <r>     9.2343     0.8686     8.1038 </r>
       <r>     9.3329     0.7990     8.1827 </r>
       <r>     9.4316     0.5977     8.2416 </r>
       <r>     9.5303     0.4160     8.2827 </r>
       <r>     9.6290     0.3594     8.3181 </r>
       <r>     9.7277     0.4576     8.3633 </r>
       <r>     9.8264     0.6507     8.4275 </r>
       <r>     9.9250     0.7954     8.5060 </r>
       <r>    10.0237     0.7987     8.5848 </r>
       <r>    10.1224     0.6991     8.6538 </r>
       <r>    10.2211     0.6049     8.7135 </r>
       <r>    10.3198     0.6327     8.7759 </r>
       <r>    10.4184     0.8256     8.8574 </r>
       <r>    10.5171     1.0685     8.9628 </r>
       <r>    10.6158     1.1671     9.0780 </r>
       <r>    10.7145     1.0398     9.1806 </r>
       <r>    10.8132     0.8047     9.2600 </r>
       <r>    10.9118     0.6576     9.3249 </r>
       <r>    11.0105     0.6767     9.3917 </r>
       <r>    11.1092     0.7697     9.4677 </r>
       <r>    11.2079     0.8072     9.5473 </r>
       <r>    11.3066     0.7514     9.6215 </r>
       <r>    11.4052     0.6729     9.6879 </r>
       <r>    11.5039     0.6790     9.7549 </r>
       <r>    11.6026     0.7868     9.8325 </r>
       <r>    11.7013     0.9016     9.9215 </r>
       <r>    11.8000     0.9457    10.0148 </r>
       <r>    11.8986     0.9402    10.1076 </r>
       <r>    11.9973     0.9550    10.2018 </r>
       <r>    12.0960     1.0009    10.3006 </r>
       <r>    12.1947     0.9938    10.3987 </r>
       <r>    12.2934     0.8975    10.4872 </r>
       <r>    12.3920     0.8179    10.5679 </r>
       <r>    12.4907     0.8352    10.6503 </r>
       <r>    12.5894     0.8998    10.7391 </r>
       <r>    12.6881     0.9674    10.8346 </r>
       <r>    12.7868     1.0652    10.9397 </r>
       <r>    12.8855     1.1875    11.0569 </r>
       <r>    12.9841     1.2655    11.1818 </r>
       <r>    13.0828     1.2543    11.3055 </r>
       <r>    13.1815     1.1672    11.4207 </r>
       <r>    13.2802     1.0699    11.5263 </r>
       <r>    13.3789     1.0438    11.6293 </r>
       <r>    13.4775     1.0903    11.7369 </r>
       <r>    13.5762     1.1324    11.8486 </r>
       <r>    13.6749     1.1369    11.9608 </r>
       <r>    13.7736     1.1050    12.0699 </r>
       <r>    13.8723     1.0035    12.1689 </r>
       <r>    13.9709     0.8914    12.2569 </r>
       <r>    14.0696     0.9035    12.3460 </r>
       <r>    14.1683     0.9972    12.4444 </r>
       <r>    14.2670     1.0203    12.5451 </r>
       <r>    14.3657     1.0104    12.6448 </r>
       <r>    14.4643     1.0909    12.7525 </r>
       <r>    14.5630     1.1716    12.8681 </r>
       <r>    14.6617     1.0913    12.9758 </r>
       <r>    14.7604     0.8942    13.0640 </r>
       <r>    14.8591     0.7420    13.1372 </r>
       <r>    14.9577     0.7111    13.2074 </r>
       <r>    15.0564     0.7697    13.2834 </r>
       <r>    15.1551     0.8679    13.3690 </r>
       <r>    15.2538     0.9932    13.4670 </r>
       <r>    15.3525     1.1300    13.5785 </r>
       <r>    15.4512     1.1870    13.6957 </r>
       <r>    15.5498     1.0841    13.8026 </r>
       <r>    15.6485     0.8961    13.8911 </r>
       <r>    15.7472     0.7740    13.9674 </r>
       <r>    15.8459     0.7750    14.0439 </r>
       <r>    15.9446     0.8195    14.1248 </r>
       <r>    16.0432     0.8054    14.2043 </r>
       <r>    16.1419     0.7398    14.2773 </r>
       <r>    16.2406     0.7041    14.3468 </r>
       <r>    16.3393     0.7226    14.4181 </r>
       <r>    16.4380     0.7513    14.4922 </r>
       <r>    16.5366     0.7650    14.5677 </r>
       <r>    16.6353     0.7659    14.6433 </r>
       <r>    16.7340     0.7464    14.7169 </r>
       <r>    16.8327     0.7055    14.7865 </r>
       <r>    16.9314     0.6567    14.8513 </r>
       <r>    17.0300     0.5872    14.9093 </r>
       <r>    17.1287     0.4743    14.9561 </r>
       <r>    17.2274     0.3659    14.9922 </r>
       <r>    17.3261     0.3402    15.0258 </r>
       <r>    17.4248     0.3865    15.0639 </r>
       <r>    17.5234     0.4435    15.1077 </r>
       <r>    17.6221     0.4867    15.1557 </r>
       <r>    17.7208     0.4961    15.2047 </r>
       <r>    17.8195     0.4613    15.2502 </r>
       <r>    17.9182     0.4441    15.2940 </r>
       <r>    18.0169     0.5034    15.3437 </r>
       <r>    18.1155     0.5796    15.4009 </r>
       <r>    18.2142     0.5659    15.4567 </r>
       <r>    18.3129     0.4692    15.5030 </r>
       <r>    18.4116     0.3879    15.5413 </r>
       <r>    18.5103     0.3590    15.5767 </r>
       <r>    18.6089     0.3454    15.6108 </r>
       <r>    18.7076     0.3269    15.6431 </r>
       <r>    18.8063     0.3002    15.6727 </r>
       <r>    18.9050     0.2621    15.6986 </r>
       <r>    19.0037     0.2456    15.7228 </r>
       <r>    19.1023     0.2842    15.7509 </r>
       <r>    19.2010     0.3370    15.7841 </r>
       <r>    19.2997     0.3312    15.8168 </r>
       <r>    19.3984     0.2675    15.8432 </r>
       <r>    19.4971     0.2013    15.8631 </r>
       <r>    19.5957     0.1572    15.8786 </r>
       <r>    19.6944     0.1336    15.8918 </r>
       <r>    19.7931     0.1244    15.9040 </r>
       <r>    19.8918     0.1175    15.9156 </r>
       <r>    19.9905     0.1162    15.9271 </r>
       <r>    20.0891     0.1335    15.9403 </r>
       <r>    20.1878     0.1526    15.9553 </r>
       <r>    20.2865     0.1393    15.9691 </r>
       <r>    20.3852     0.0920    15.9781 </r>
       <r>    20.4839     0.0427    15.9824 </r>
       <r>    20.5825     0.0147    15.9838 </r>
       <r>    20.6812     0.0082    15.9846 </r>
       <r>    20.7799     0.0152    15.9861 </r>
       <r>    20.8786     0.0278    15.9889 </r>
       <r>    20.9773     0.0368    15.9925 </r>
       <r>    21.0760     0.0353    15.9960 </r>
       <r>    21.1746     0.0244    15.9984 </r>
       <r>    21.2733     0.0117    15.9995 </r>
       <r>    21.3720     0.0038    15.9999 </r>
       <r>    21.4707     0.0008    16.0000 </r>
       <r>    21.5694     0.0001    16.0000 </r>
       <r>    21.6680     0.0000    16.0000 </r>
       <r>    21.7667     0.0000    16.0000 </r>
       <r>    21.8654     0.0000    16.0000 </r>
       <r>    21.9641     0.0000    16.0000 </r>
       <r>    22.0628     0.0000    16.0000 </r>
       <r>    22.1614     0.0000    16.0000 </r>
       <r>    22.2601     0.0000    16.0000 </r>
       <r>    22.3588     0.0000    16.0000 </r>
       <r>    22.4575     0.0000    16.0000 </r>
       <r>    22.5562     0.0000    16.0000 </r>
       <r>    22.6548     0.0000    16.0000 </r>
       <r>    22.7535     0.0000    16.0000 </r>
       <r>    22.8522     0.0000    16.0000 </r>
       <r>    22.9509     0.0000    16.0000 </r>
       <r>    23.0496     0.0000    16.0000 </r>
      </set>
     </set>
    </array>
   </total>
  </dos>
 </calculation>
 <structure name="finalpos" >
  <crystal>
   <varray name="basis" >
    <v>      -2.45000000       2.45000000       1.27400000 </v>
    <v>       2.45000000      -2.45000000       1.27400000 </v>
    <v>       2.45000000       2.45000000      -1.27400000 </v>
   </varray>
   <i name="volume">     30.58874000 </i>
   <varray name="rec_basis" >
    <v>       0.00000000       0.20408163       0.39246468 </v>
    <v>       0.20408163       0.00000000       0.39246468 </v>
    <v>       0.20408163       0.20408163      -0.00000000 </v>
   </varray>
  </crystal>
  <varray name="positions" >
   <v>       0.25000000       0.75000000       0.50000000 </v>
   <v>       0.00000000       0.00000000       0.00000000 </v>
  </varray>
 </structure>
</modeling>
