<?xml version="1.0" encoding="ISO-8859-1"?>
<modeling>
 <generator>
  <i name="program" type="string">vasp </i>
  <i name="version" type="string">5.4.4.18Apr17-6-g9f103f2a35  </i>
  <i name="subversion" type="string">(build Dec 09 2018 21:25:21) complex            parallel </i>
  <i name="platform" type="string">IFC18.0.1.163_CrayMPICH7.7.0_MKL18.0.1.163 </i>
  <i name="date" type="string">2019 03 18 </i>
  <i name="time" type="string">04:25:20 </i>
 </generator>
 <incar>
  <i type="string" name="PREC">normal</i>
  <i type="int" name="IBRION">     2</i>
  <i name="EDIFF">      0.00040000</i>
  <i name="EDIFFG">     -0.01000000</i>
  <i type="int" name="NSW">    15</i>
  <i type="int" name="ISIF">     2</i>
  <i name="ENCUT">    150.00000000</i>
  <i type="int" name="NBANDS">     8</i>
  <i type="logical" name="LREAL"> F  </i>
  <i type="int" name="ISMEAR">     0</i>
  <i name="SIGMA">      0.20000000</i>
  <v type="int" name="KPOINT_BSE">    -1     0     0     0</v>
 </incar>
 <structure name="primitive_cell" >
  <crystal>
   <varray name="basis" >
    <v>      -2.45000000       2.45000000       1.27400000 </v>
    <v>       2.45000000      -2.45000000       1.27400000 </v>
    <v>       2.45000000       2.45000000      -1.27400000 </v>
   </varray>
   <i name="volume">     30.58874000 </i>
   <varray name="rec_basis" >
    <v>       0.00000000       0.20408163       0.39246468 </v>
    <v>       0.20408163       0.00000000       0.39246468 </v>
    <v>       0.20408163       0.20408163      -0.00000000 </v>
   </varray>
  </crystal>
  <varray name="positions" >
   <v>       0.25000000      -0.25000000      -0.50000000 </v>
   <v>       0.00000000       0.00000000       0.00000000 </v>
  </varray>
 </structure>
 <varray name="primitive_index" >
  <v type="int" >        1 </v>
  <v type="int" >        2 </v>
 </varray>
 <kpoints>
  <generation param="Monkhorst-Pack">
   <v type="int" name="divisions">      10       10       10 </v>
   <v name="usershift">      0.00000000       0.00000000       0.00000000 </v>
   <v name="genvec1">      0.10000000       0.00000000      -0.00000000 </v>
   <v name="genvec2">      0.00000000       0.10000000      -0.00000000 </v>
   <v name="genvec3">      0.00000000      -0.00000000       0.10000000 </v>
   <v name="shift">      0.50000000       0.50000000       0.50000000 </v>
  </generation>
  <varray name="kpointlist" >
   <v>       0.05000000       0.05000000       0.05000000 </v>
   <v>       0.15000000       0.05000000       0.05000000 </v>
   <v>       0.25000000       0.05000000       0.05000000 </v>
   <v>       0.35000000       0.05000000       0.05000000 </v>
   <v>       0.45000000       0.05000000       0.05000000 </v>
   <v>      -0.05000000       0.05000000       0.05000000 </v>
   <v>       0.15000000       0.15000000       0.05000000 </v>
   <v>       0.25000000       0.15000000       0.05000000 </v>
   <v>       0.35000000       0.15000000       0.05000000 </v>
   <v>       0.45000000       0.15000000       0.05000000 </v>
   <v>      -0.45000000       0.15000000       0.05000000 </v>
   <v>      -0.35000000       0.15000000       0.05000000 </v>
   <v>      -0.25000000       0.15000000       0.05000000 </v>
   <v>      -0.15000000       0.15000000       0.05000000 </v>
   <v>      -0.05000000       0.15000000       0.05000000 </v>
   <v>       0.25000000       0.25000000       0.05000000 </v>
   <v>       0.35000000       0.25000000       0.05000000 </v>
   <v>       0.45000000       0.25000000       0.05000000 </v>
   <v>      -0.45000000       0.25000000       0.05000000 </v>
   <v>      -0.35000000       0.25000000       0.05000000 </v>
   <v>      -0.25000000       0.25000000       0.05000000 </v>
   <v>      -0.15000000       0.25000000       0.05000000 </v>
   <v>      -0.05000000       0.25000000       0.05000000 </v>
   <v>       0.35000000       0.35000000       0.05000000 </v>
   <v>       0.45000000       0.35000000       0.05000000 </v>
   <v>      -0.45000000       0.35000000       0.05000000 </v>
   <v>      -0.35000000       0.35000000       0.05000000 </v>
   <v>      -0.25000000       0.35000000       0.05000000 </v>
   <v>      -0.15000000       0.35000000       0.05000000 </v>
   <v>      -0.05000000       0.35000000       0.05000000 </v>
   <v>       0.45000000       0.45000000       0.05000000 </v>
   <v>      -0.45000000       0.45000000       0.05000000 </v>
   <v>      -0.35000000       0.45000000       0.05000000 </v>
   <v>      -0.25000000       0.45000000       0.05000000 </v>
   <v>      -0.15000000       0.45000000       0.05000000 </v>
   <v>      -0.05000000       0.45000000       0.05000000 </v>
   <v>      -0.45000000      -0.45000000       0.05000000 </v>
   <v>      -0.35000000      -0.45000000       0.05000000 </v>
   <v>      -0.25000000      -0.45000000       0.05000000 </v>
   <v>      -0.15000000      -0.45000000       0.05000000 </v>
   <v>      -0.05000000      -0.45000000       0.05000000 </v>
   <v>      -0.35000000      -0.35000000       0.05000000 </v>
   <v>      -0.25000000      -0.35000000       0.05000000 </v>
   <v>      -0.15000000      -0.35000000       0.05000000 </v>
   <v>      -0.05000000      -0.35000000       0.05000000 </v>
   <v>      -0.25000000      -0.25000000       0.05000000 </v>
   <v>      -0.15000000      -0.25000000       0.05000000 </v>
   <v>      -0.05000000      -0.25000000       0.05000000 </v>
   <v>      -0.15000000      -0.15000000       0.05000000 </v>
   <v>      -0.05000000      -0.15000000       0.05000000 </v>
   <v>      -0.05000000      -0.05000000       0.05000000 </v>
   <v>       0.15000000       0.15000000       0.15000000 </v>
   <v>       0.25000000       0.15000000       0.15000000 </v>
   <v>       0.35000000       0.15000000       0.15000000 </v>
   <v>      -0.15000000       0.15000000       0.15000000 </v>
   <v>       0.25000000       0.25000000       0.15000000 </v>
   <v>       0.35000000       0.25000000       0.15000000 </v>
   <v>       0.45000000       0.25000000       0.15000000 </v>
   <v>      -0.25000000       0.25000000       0.15000000 </v>
   <v>      -0.15000000       0.25000000       0.15000000 </v>
   <v>       0.35000000       0.35000000       0.15000000 </v>
   <v>      -0.35000000       0.35000000       0.15000000 </v>
   <v>      -0.25000000       0.35000000       0.15000000 </v>
   <v>      -0.15000000       0.35000000       0.15000000 </v>
   <v>      -0.45000000       0.45000000       0.15000000 </v>
   <v>      -0.35000000       0.45000000       0.15000000 </v>
   <v>      -0.25000000       0.45000000       0.15000000 </v>
   <v>      -0.15000000       0.45000000       0.15000000 </v>
   <v>      -0.45000000      -0.45000000       0.15000000 </v>
   <v>      -0.35000000      -0.45000000       0.15000000 </v>
   <v>      -0.25000000      -0.45000000       0.15000000 </v>
   <v>      -0.15000000      -0.45000000       0.15000000 </v>
   <v>      -0.35000000      -0.35000000       0.15000000 </v>
   <v>      -0.25000000      -0.35000000       0.15000000 </v>
   <v>      -0.15000000      -0.35000000       0.15000000 </v>
   <v>      -0.25000000      -0.25000000       0.15000000 </v>
   <v>      -0.15000000      -0.25000000       0.15000000 </v>
   <v>      -0.15000000      -0.15000000       0.15000000 </v>
   <v>       0.25000000       0.25000000       0.25000000 </v>
   <v>      -0.25000000       0.25000000       0.25000000 </v>
   <v>      -0.35000000       0.35000000       0.25000000 </v>
   <v>      -0.25000000       0.35000000       0.25000000 </v>
   <v>      -0.45000000       0.45000000       0.25000000 </v>
   <v>      -0.35000000       0.45000000       0.25000000 </v>
   <v>      -0.25000000       0.45000000       0.25000000 </v>
   <v>      -0.45000000      -0.45000000       0.25000000 </v>
   <v>      -0.35000000      -0.45000000       0.25000000 </v>
   <v>      -0.25000000      -0.45000000       0.25000000 </v>
   <v>      -0.35000000      -0.35000000       0.25000000 </v>
   <v>      -0.25000000      -0.35000000       0.25000000 </v>
   <v>      -0.25000000      -0.25000000       0.25000000 </v>
   <v>      -0.35000000       0.35000000       0.35000000 </v>
   <v>      -0.45000000       0.45000000       0.35000000 </v>
   <v>      -0.35000000       0.45000000       0.35000000 </v>
   <v>      -0.45000000      -0.45000000       0.35000000 </v>
   <v>      -0.35000000      -0.45000000       0.35000000 </v>
   <v>      -0.35000000      -0.35000000       0.35000000 </v>
   <v>      -0.45000000       0.45000000       0.45000000 </v>
   <v>      -0.45000000      -0.45000000       0.45000000 </v>
  </varray>
  <varray name="weights" >
   <v>       0.00800000 </v>
   <v>       0.01600000 </v>
   <v>       0.01600000 </v>
   <v>       0.01600000 </v>
   <v>       0.00800000 </v>
   <v>       0.00400000 </v>
   <v>       0.00800000 </v>
   <v>       0.01600000 </v>
   <v>       0.01600000 </v>
   <v>       0.01600000 </v>
   <v>       0.01600000 </v>
   <v>       0.01600000 </v>
   <v>       0.00800000 </v>
   <v>       0.00800000 </v>
   <v>       0.00800000 </v>
   <v>       0.00800000 </v>
   <v>       0.01600000 </v>
   <v>       0.01600000 </v>
   <v>       0.01600000 </v>
   <v>       0.00800000 </v>
   <v>       0.00800000 </v>
   <v>       0.01600000 </v>
   <v>       0.00800000 </v>
   <v>       0.00800000 </v>
   <v>       0.01600000 </v>
   <v>       0.00800000 </v>
   <v>       0.00800000 </v>
   <v>       0.01600000 </v>
   <v>       0.01600000 </v>
   <v>       0.00800000 </v>
   <v>       0.00400000 </v>
   <v>       0.00800000 </v>
   <v>       0.01600000 </v>
   <v>       0.01600000 </v>
   <v>       0.01600000 </v>
   <v>       0.00800000 </v>
   <v>       0.00800000 </v>
   <v>       0.01600000 </v>
   <v>       0.01600000 </v>
   <v>       0.01600000 </v>
   <v>       0.00800000 </v>
   <v>       0.00800000 </v>
   <v>       0.01600000 </v>
   <v>       0.01600000 </v>
   <v>       0.00800000 </v>
   <v>       0.00800000 </v>
   <v>       0.01600000 </v>
   <v>       0.00800000 </v>
   <v>       0.00800000 </v>
   <v>       0.00800000 </v>
   <v>       0.00200000 </v>
   <v>       0.00800000 </v>
   <v>       0.01600000 </v>
   <v>       0.00800000 </v>
   <v>       0.00400000 </v>
   <v>       0.00800000 </v>
   <v>       0.01600000 </v>
   <v>       0.00800000 </v>
   <v>       0.00800000 </v>
   <v>       0.00800000 </v>
   <v>       0.00400000 </v>
   <v>       0.00800000 </v>
   <v>       0.01600000 </v>
   <v>       0.00800000 </v>
   <v>       0.00800000 </v>
   <v>       0.01600000 </v>
   <v>       0.01600000 </v>
   <v>       0.00800000 </v>
   <v>       0.00800000 </v>
   <v>       0.01600000 </v>
   <v>       0.01600000 </v>
   <v>       0.00800000 </v>
   <v>       0.00800000 </v>
   <v>       0.01600000 </v>
   <v>       0.00800000 </v>
   <v>       0.00800000 </v>
   <v>       0.00800000 </v>
   <v>       0.00200000 </v>
   <v>       0.00200000 </v>
   <v>       0.00400000 </v>
   <v>       0.00800000 </v>
   <v>       0.00800000 </v>
   <v>       0.00800000 </v>
   <v>       0.01600000 </v>
   <v>       0.00800000 </v>
   <v>       0.00800000 </v>
   <v>       0.01600000 </v>
   <v>       0.00800000 </v>
   <v>       0.00800000 </v>
   <v>       0.00800000 </v>
   <v>       0.00200000 </v>
   <v>       0.00400000 </v>
   <v>       0.00800000 </v>
   <v>       0.00800000 </v>
   <v>       0.00800000 </v>
   <v>       0.00800000 </v>
   <v>       0.00200000 </v>
   <v>       0.00400000 </v>
   <v>       0.00200000 </v>
  </varray>
 </kpoints>
 <parameters>
  <separator name="general" >
   <i type="string" name="SYSTEM">unknown system</i>
   <i type="logical" name="LCOMPAT"> F  </i>
  </separator>
  <separator name="electronic" >
   <i type="string" name="PREC">normal</i>
   <i name="ENMAX">    150.00000000</i>
   <i name="ENAUG">    322.06900000</i>
   <i name="EDIFF">      0.00040000</i>
   <i type="int" name="IALGO">    38</i>
   <i type="int" name="IWAVPR">    11</i>
   <i type="int" name="NBANDS">     8</i>
   <i name="NELECT">      8.00000000</i>
   <i type="int" name="TURBO">     0</i>
   <i type="int" name="IRESTART">     0</i>
   <i type="int" name="NREBOOT">     0</i>
   <i type="int" name="NMIN">     0</i>
   <i name="EREF">      0.00000000</i>
   <separator name="electronic smearing" >
    <i type="int" name="ISMEAR">     0</i>
    <i name="SIGMA">      0.20000000</i>
    <i name="KSPACING">      0.50000000</i>
    <i type="logical" name="KGAMMA"> T  </i>
   </separator>
   <separator name="electronic projectors" >
    <i type="logical" name="LREAL"> F  </i>
    <v name="ROPT">      0.00000000</v>
    <i type="int" name="LMAXPAW">  -100</i>
    <i type="int" name="LMAXMIX">     2</i>
    <i type="logical" name="NLSPLINE"> F  </i>
   </separator>
   <separator name="electronic startup" >
    <i type="int" name="ISTART">     0</i>
    <i type="int" name="ICHARG">     2</i>
    <i type="int" name="INIWAV">     1</i>
   </separator>
   <separator name="electronic spin" >
    <i type="int" name="ISPIN">     1</i>
    <i type="logical" name="LNONCOLLINEAR"> F  </i>
    <v name="MAGMOM">      1.00000000      1.00000000</v>
    <i name="NUPDOWN">     -1.00000000</i>
    <i type="logical" name="LSORBIT"> F  </i>
    <v name="SAXIS">      0.00000000      0.00000000      1.00000000</v>
    <i type="logical" name="LSPIRAL"> F  </i>
    <v name="QSPIRAL">      0.00000000      0.00000000      0.00000000</v>
    <i type="logical" name="LZEROZ"> F  </i>
   </separator>
   <separator name="electronic exchange-correlation" >
    <i type="logical" name="LASPH"> F  </i>
    <i type="logical" name="LMETAGGA"> F  </i>
   </separator>
   <separator name="electronic convergence" >
    <i type="int" name="NELM">    60</i>
    <i type="int" name="NELMDL">     0</i>
    <i type="int" name="NELMIN">     2</i>
    <i name="ENINI">    150.00000000</i>
    <separator name="electronic convergence detail" >
     <i type="logical" name="LDIAG"> T  </i>
     <i type="logical" name="LSUBROT"> F  </i>
     <i name="WEIMIN">      0.00100000</i>
     <i name="EBREAK">      0.00001250</i>
     <i name="DEPER">      0.30000000</i>
     <i type="int" name="NRMM">     4</i>
     <i name="TIME">      0.40000000</i>
    </separator>
   </separator>
   <separator name="electronic mixer" >
    <i name="AMIX">      0.40000000</i>
    <i name="BMIX">      1.00000000</i>
    <i name="AMIN">      0.10000000</i>
    <i name="AMIX_MAG">      1.60000000</i>
    <i name="BMIX_MAG">      1.00000000</i>
    <separator name="electronic mixer details" >
     <i type="int" name="IMIX">     4</i>
     <i type="logical" name="MIXFIRST"> F  </i>
     <i type="int" name="MAXMIX">   -45</i>
     <i name="WC">    100.00000000</i>
     <i type="int" name="INIMIX">     1</i>
     <i type="int" name="MIXPRE">     1</i>
     <i type="int" name="MREMOVE">     5</i>
    </separator>
   </separator>
   <separator name="electronic dipolcorrection" >
    <i type="logical" name="LDIPOL"> F  </i>
    <i type="logical" name="LMONO"> F  </i>
    <i type="int" name="IDIPOL">     0</i>
    <i name="EPSILON">      1.00000000</i>
    <v name="DIPOL">   -100.00000000   -100.00000000   -100.00000000</v>
    <i name="EFIELD">      0.00000000</i>
   </separator>
  </separator>
  <separator name="grids" >
   <i type="int" name="NGX">    12</i>
   <i type="int" name="NGY">    12</i>
   <i type="int" name="NGZ">    12</i>
   <i type="int" name="NGXF">    24</i>
   <i type="int" name="NGYF">    24</i>
   <i type="int" name="NGZF">    24</i>
   <i type="logical" name="ADDGRID"> F  </i>
  </separator>
  <separator name="ionic" >
   <i type="int" name="NSW">    15</i>
   <i type="int" name="IBRION">     2</i>
   <i type="int" name="MDALGO">     0</i>
   <i type="int" name="ISIF">     2</i>
   <i name="PSTRESS">      0.00000000</i>
   <i name="EDIFFG">     -0.01000000</i>
   <i type="int" name="NFREE">     1</i>
   <i name="POTIM">      0.50000000</i>
   <i name="SMASS">     -3.00000000</i>
   <i name="SCALEE">      1.00000000</i>
  </separator>
  <separator name="ionic md" >
   <i name="TEBEG">      0.00010000</i>
   <i name="TEEND">      0.00010000</i>
   <i type="int" name="NBLOCK">     1</i>
   <i type="int" name="KBLOCK">    15</i>
   <i type="int" name="NPACO">   256</i>
   <i name="APACO">     16.00000000</i>
  </separator>
  <separator name="symmetry" >
   <i type="int" name="ISYM">     2</i>
   <i name="SYMPREC">      0.00001000</i>
  </separator>
  <separator name="dos" >
   <i type="int" name="LORBIT">     0</i>
   <v name="RWIGS">     -1.00000000</v>
   <i type="int" name="NEDOS">   301</i>
   <i name="EMIN">     10.00000000</i>
   <i name="EMAX">    -10.00000000</i>
   <i name="EFERMI">      0.00000000</i>
  </separator>
  <separator name="writing" >
   <i type="int" name="NWRITE">     2</i>
   <i type="logical" name="LWAVE"> T  </i>
   <i type="logical" name="LDOWNSAMPLE"> F  </i>
   <i type="logical" name="LCHARG"> T  </i>
   <i type="logical" name="LPARD"> F  </i>
   <i type="logical" name="LVTOT"> F  </i>
   <i type="logical" name="LVHAR"> F  </i>
   <i type="logical" name="LELF"> F  </i>
   <i type="logical" name="LOPTICS"> F  </i>
   <v name="STM">      0.00000000      0.00000000      0.00000000      0.00000000      0.00000000      0.00000000      0.00000000</v>
  </separator>
  <separator name="performance" >
   <i type="int" name="NPAR">     8</i>
   <i type="int" name="NSIM">     4</i>
   <i type="int" name="NBLK">    -1</i>
   <i type="logical" name="LPLANE"> T  </i>
   <i type="logical" name="LSCALAPACK"> T  </i>
   <i type="logical" name="LSCAAWARE"> F  </i>
   <i type="logical" name="LSCALU"> F  </i>
   <i type="logical" name="LASYNC"> F  </i>
   <i type="logical" name="LORBITALREAL"> F  </i>
  </separator>
  <separator name="miscellaneous" >
   <i type="int" name="IDIOT">     3</i>
   <i type="int" name="ISPECIAL">     0</i>
   <i type="logical" name="LMUSIC"> F  </i>
   <v name="POMASS">     28.08500000</v>
   <v name="DARWINR">      0.00000000</v>
   <v name="DARWINV">      1.00000000</v>
   <i type="logical" name="LCORR"> T  </i>
  </separator>
  <i type="logical" name="GGA_COMPAT"> T  </i>
  <i type="logical" name="LBERRY"> F  </i>
  <i type="int" name="ICORELEVEL">     0</i>
  <i type="logical" name="LDAU"> F  </i>
  <i type="int" name="I_CONSTRAINED_M">     0</i>
  <separator name="electronic exchange-correlation" >
   <i type="string" name="GGA">--</i>
   <i type="int" name="VOSKOWN">     0</i>
   <i type="logical" name="LHFCALC"> F  </i>
   <i type="string" name="PRECFOCK"></i>
   <i type="logical" name="LSYMGRAD"> F  </i>
   <i type="logical" name="LHFONE"> F  </i>
   <i type="logical" name="LRHFCALC"> F  </i>
   <i type="logical" name="LTHOMAS"> F  </i>
   <i type="logical" name="LMODELHF"> F  </i>
   <i name="ENCUT4O">     -1.00000000</i>
   <i type="int" name="EXXOEP">     0</i>
   <i type="int" name="FOURORBIT">     0</i>
   <i name="AEXX">      0.00000000</i>
   <i name="HFALPHA">      0.00000000</i>
   <i name="MCALPHA">      0.00000000</i>
   <i name="ALDAX">      1.00000000</i>
   <i name="AGGAX">      1.00000000</i>
   <i name="ALDAC">      1.00000000</i>
   <i name="AGGAC">      1.00000000</i>
   <i type="int" name="NKREDX">     1</i>
   <i type="int" name="NKREDY">     1</i>
   <i type="int" name="NKREDZ">     1</i>
   <i type="logical" name="SHIFTRED"> F  </i>
   <i type="logical" name="ODDONLY"> F  </i>
   <i type="logical" name="EVENONLY"> F  </i>
   <i type="int" name="LMAXFOCK">     0</i>
   <i type="int" name="NMAXFOCKAE">     0</i>
   <i type="logical" name="LFOCKAEDFT"> F  </i>
   <i name="HFSCREEN">      0.00000000</i>
   <i name="HFSCREENC">      0.00000000</i>
   <i type="int" name="NBANDSGWLOW">     0</i>
  </separator>
  <separator name="vdW DFT" >
   <i type="logical" name="LUSE_VDW"> F  </i>
   <i name="Zab_VDW">     -0.84910000</i>
   <i name="PARAM1">      0.12340000</i>
   <i name="PARAM2">      1.00000000</i>
   <i name="PARAM3">      0.00000000</i>
  </separator>
  <separator name="model GW" >
   <i type="int" name="MODEL_GW">     0</i>
   <i name="MODEL_EPS0">      9.17662200</i>
   <i name="MODEL_ALPHA">      1.00000000</i>
  </separator>
  <separator name="linear response parameters" >
   <i type="logical" name="LEPSILON"> F  </i>
   <i type="logical" name="LRPA"> F  </i>
   <i type="logical" name="LNABLA"> F  </i>
   <i type="logical" name="LVEL"> F  </i>
   <i type="int" name="KINTER">     0</i>
   <i name="CSHIFT">      0.10000000</i>
   <i name="OMEGAMAX">     -1.00000000</i>
   <i name="DEG_THRESHOLD">      0.00200000</i>
   <i name="RTIME">     -0.10000000</i>
   <i name="WPLASMAI">      0.00000000</i>
   <v name="DFIELD">      0.00000000      0.00000000      0.00000000</v>
   <v name="WPLASMA">      0.00000000      0.00000000      0.00000000      0.00000000      0.00000000      0.00000000      0.00000000      0.00000000      0.00000000</v>
  </separator>
  <separator name="orbital magnetization" >
   <i type="logical" name="NUCIND"> F  </i>
   <v name="MAGPOS">      0.00000000      0.00000000      0.00000000</v>
   <i type="logical" name="LNICSALL"> T  </i>
   <i type="logical" name="ORBITALMAG"> F  </i>
   <i type="logical" name="LMAGBLOCH"> F  </i>
   <i type="logical" name="LCHIMAG"> F  </i>
   <i type="logical" name="LGAUGE"> T  </i>
   <i type="int" name="MAGATOM">     0</i>
   <v name="MAGDIPOL">      0.00000000      0.00000000      0.00000000</v>
   <v name="AVECCONST">      0.00000000      0.00000000      0.00000000</v>
  </separator>
  <separator name="response functions" >
   <i type="logical" name="LADDER"> F  </i>
   <i type="logical" name="LRPAFORCE"> F  </i>
   <i type="logical" name="LFXC"> F  </i>
   <i type="logical" name="LHARTREE"> T  </i>
   <i type="int" name="IBSE">     0</i>
   <v type="int" name="KPOINT">    -1     0     0     0</v>
   <i type="logical" name="LTCTE"> F  </i>
   <i type="logical" name="LTETE"> F  </i>
   <i type="logical" name="LTRIPLET"> F  </i>
   <i type="logical" name="LFXCEPS"> F  </i>
   <i type="logical" name="LFXHEG"> F  </i>
   <i type="int" name="NATURALO">     2</i>
   <i type="logical" name="L2ORDER"> F  </i>
   <i type="logical" name="LMP2LT"> F  </i>
   <i type="logical" name="LUSEW"> F  </i>
   <i name="ENCUTGW">     -2.00000000</i>
   <i name="ENCUTGWSOFT">     -2.00000000</i>
   <i name="ENCUTLF">     -1.00000000</i>
   <i type="int" name="LMAXMP2">    -1</i>
   <i name="SCISSOR">      0.00000000</i>
   <i type="int" name="NOMEGA">     0</i>
   <i type="int" name="NOMEGAR">     0</i>
   <i type="int" name="NBANDSGW">    -1</i>
   <i type="int" name="NBANDSO">    -1</i>
   <i type="int" name="NBANDSV">    -1</i>
   <i type="int" name="NELM">     1</i>
   <i type="int" name="NELMHF">     1</i>
   <i type="int" name="DIM">     3</i>
   <i type="int" name="ANTIRES">     0</i>
   <i name="OMEGAMAX">    -30.00000000</i>
   <i name="OMEGAMIN">    -30.00000000</i>
   <i name="OMEGATL">   -200.00000000</i>
   <i type="int" name="OMEGAGRID">   140</i>
   <i name="CSHIFT">     -0.10000000</i>
   <i type="logical" name="SELFENERGY"> F  </i>
   <i type="logical" name="LSPECTRAL"> F  </i>
   <i type="logical" name="LSPECTRALGW"> F  </i>
   <i type="logical" name="LSINGLES"> F  </i>
   <i type="logical" name="LFERMIGW"> F  </i>
   <i type="logical" name="ODDONLYGW"> F  </i>
   <i type="logical" name="EVENONLYGW"> F  </i>
   <i type="int" name="NKREDLFX">     1</i>
   <i type="int" name="NKREDLFY">     1</i>
   <i type="int" name="NKREDLFZ">     1</i>
   <i type="int" name="MAXMEM">  2800</i>
   <i type="int" name="TELESCOPE">     0</i>
   <i type="int" name="TAUPAR">     1</i>
   <i type="int" name="OMEGAPAR">    -1</i>
   <i name="LAMBDA">      1.00000000</i>
  </separator>
  <separator name="External order field" >
   <i name="OFIELD_KAPPA">      0.00000000</i>
   <v name="OFIELD_K">      0.00000000      0.00000000      0.00000000</v>
   <i name="OFIELD_Q6_NEAR">      0.00000000</i>
   <i name="OFIELD_Q6_FAR">      0.00000000</i>
   <i name="OFIELD_A">      0.00000000</i>
  </separator>
 </parameters>
 <atominfo>
  <atoms>       2 </atoms>
  <types>       1 </types>
  <array name="atoms" >
   <dimension dim="1">ion</dimension>
   <field type="string">element</field>
   <field type="int">atomtype</field>
   <set>
    <rc><c>Si</c><c>   1</c></rc>
    <rc><c>Si</c><c>   1</c></rc>
   </set>
  </array>
  <array name="atomtypes" >
   <dimension dim="1">type</dimension>
   <field type="int">atomspertype</field>
   <field type="string">element</field>
   <field>mass</field>
   <field>valence</field>
   <field type="string">pseudopotential</field>
   <set>
    <rc><c>   2</c><c>Si</c><c>     28.08500000</c><c>      4.00000000</c><c> PAW_PBE Si 05Jan2001                   </c></rc>
   </set>
  </array>
 </atominfo>
 <structure name="initialpos" >
  <crystal>
   <varray name="basis" >
    <v>      -2.45000000       2.45000000       1.27400000 </v>
    <v>       2.45000000      -2.45000000       1.27400000 </v>
    <v>       2.45000000       2.45000000      -1.27400000 </v>
   </varray>
   <i name="volume">     30.58874000 </i>
   <varray name="rec_basis" >
    <v>       0.00000000       0.20408163       0.39246468 </v>
    <v>       0.20408163       0.00000000       0.39246468 </v>
    <v>       0.20408163       0.20408163      -0.00000000 </v>
   </varray>
  </crystal>
  <varray name="positions" >
   <v>       0.25000000       0.75000000       0.50000000 </v>
   <v>       0.00000000       0.00000000       0.00000000 </v>
  </varray>
 </structure>
 <calculation>
  <scstep>
   <time name="dav">    0.73    0.73</time>
   <time name="total">    0.76    0.81</time>
   <energy>
    <i name="alphaZ">      4.40202223 </i>
    <i name="ewald">   -265.18101312 </i>
    <i name="hartreedc">     -2.30415367 </i>
    <i name="XCdc">    -17.81530915 </i>
    <i name="pawpsdc">     65.95520812 </i>
    <i name="pawaedc">    -30.76852678 </i>
    <i name="eentropy">     -0.00964988 </i>
    <i name="bandstr">     34.27739034 </i>
    <i name="atom">    206.09183643 </i>
    <i name="e_fr_energy">     -5.35219548 </i>
    <i name="e_wo_entrp">     -5.34254561 </i>
    <i name="e_0_energy">     -5.34737054 </i>
   </energy>
  </scstep>
  <scstep>
   <time name="dav">    1.13    1.18</time>
   <time name="total">    1.14    1.18</time>
   <energy>
    <i name="e_fr_energy">    -10.10524301 </i>
    <i name="e_wo_entrp">    -10.08832523 </i>
    <i name="e_0_energy">    -10.09678412 </i>
   </energy>
  </scstep>
  <scstep>
   <time name="dav">    0.80    0.83</time>
   <time name="total">    0.80    0.84</time>
   <energy>
    <i name="e_fr_energy">    -10.13448203 </i>
    <i name="e_wo_entrp">    -10.11797804 </i>
    <i name="e_0_energy">    -10.12623003 </i>
   </energy>
  </scstep>
  <scstep>
   <time name="dav">    1.19    1.22</time>
   <time name="total">    1.20    1.22</time>
   <energy>
    <i name="e_fr_energy">    -10.13451257 </i>
    <i name="e_wo_entrp">    -10.11800961 </i>
    <i name="e_0_energy">    -10.12626109 </i>
   </energy>
  </scstep>
  <scstep>
   <time name="dav">    0.76    0.78</time>
   <time name="total">    0.78    0.81</time>
   <energy>
    <i name="e_fr_energy">    -10.13451258 </i>
    <i name="e_wo_entrp">    -10.11800963 </i>
    <i name="e_0_energy">    -10.12626111 </i>
   </energy>
  </scstep>
  <scstep>
   <time name="dav">    0.86    0.86</time>
   <time name="total">    0.90    0.92</time>
   <energy>
    <i name="e_fr_energy">    -10.12611223 </i>
    <i name="e_wo_entrp">    -10.10963401 </i>
    <i name="e_0_energy">    -10.11787312 </i>
   </energy>
  </scstep>
  <scstep>
   <time name="dav">    0.78    0.79</time>
   <time name="total">    0.83    0.84</time>
   <energy>
    <i name="e_fr_energy">    -10.11957498 </i>
    <i name="e_wo_entrp">    -10.10313121 </i>
    <i name="e_0_energy">    -10.11135310 </i>
   </energy>
  </scstep>
  <scstep>
   <time name="dav">    0.50    0.50</time>
   <time name="total">    0.53    0.54</time>
   <energy>
    <i name="alphaZ">      4.40202223 </i>
    <i name="ewald">   -265.18101312 </i>
    <i name="hartreedc">     -2.51355737 </i>
    <i name="XCdc">    -17.53785769 </i>
    <i name="pawpsdc">     72.39304048 </i>
    <i name="pawaedc">    -37.32001570 </i>
    <i name="eentropy">     -0.01645084 </i>
    <i name="bandstr">     29.56244209 </i>
    <i name="atom">    206.09183643 </i>
    <i name="e_fr_energy">    -10.11955348 </i>
    <i name="e_wo_entrp">    -10.10310264 </i>
    <i name="e_0_energy">    -10.11132806 </i>
   </energy>
  </scstep>
  <structure>
   <crystal>
    <varray name="basis" >
     <v>      -2.45000000       2.45000000       1.27400000 </v>
     <v>       2.45000000      -2.45000000       1.27400000 </v>
     <v>       2.45000000       2.45000000      -1.27400000 </v>
    </varray>
    <i name="volume">     30.58874000 </i>
    <varray name="rec_basis" >
     <v>       0.00000000       0.20408163       0.39246468 </v>
     <v>       0.20408163       0.00000000       0.39246468 </v>
     <v>       0.20408163       0.20408163      -0.00000000 </v>
    </varray>
   </crystal>
   <varray name="positions" >
    <v>       0.25000000       0.75000000       0.50000000 </v>
    <v>       0.00000000       0.00000000       0.00000000 </v>
   </varray>
  </structure>
  <varray name="forces" >
   <v>       0.00000000      -0.00000000      -0.00000000 </v>
   <v>      -0.00000000       0.00000000       0.00000000 </v>
  </varray>
  <varray name="stress" >
   <v>      -7.23025060       0.00000000       0.00000000 </v>
   <v>      -0.00000000      -7.23025060       0.00000000 </v>
   <v>       0.00000000       0.00000000      37.01707831 </v>
  </varray>
  <energy>
   <i name="e_fr_energy">    -10.11955348 </i>
   <i name="e_wo_entrp">    -10.11132806 </i>
   <i name="e_0_energy">     -0.01645084 </i>
  </energy>
  <time name="totalsc">    7.72    8.85</time>
  <eigenvalues>
   <array>
    <dimension dim="1">band</dimension>
    <dimension dim="2">kpoint</dimension>
    <dimension dim="3">spin</dimension>
    <field>eigene</field>
    <field>occ</field>
    <set>
     <set comment="spin 1">
      <set comment="kpoint 1">
       <r>   -4.2727    1.0000 </r>
       <r>    4.7414    1.0000 </r>
       <r>    6.6125    1.0000 </r>
       <r>    7.7613    1.0000 </r>
       <r>   11.6095    0.0000 </r>
       <r>   15.1460    0.0000 </r>
       <r>   16.1770    0.0000 </r>
       <r>   17.0159    0.0000 </r>
      </set>
      <set comment="kpoint 2">
       <r>   -3.4282    1.0000 </r>
       <r>    4.4675    1.0000 </r>
       <r>    6.8765    1.0000 </r>
       <r>    9.1713    0.3412 </r>
       <r>   12.6821    0.0000 </r>
       <r>   13.1212    0.0000 </r>
       <r>   13.5018    0.0000 </r>
       <r>   15.4326    0.0000 </r>
      </set>
      <set comment="kpoint 3">
       <r>   -2.0302    1.0000 </r>
       <r>    4.6764    1.0000 </r>
       <r>    7.1954    1.0000 </r>
       <r>    8.6223    0.9997 </r>
       <r>   10.7436    0.0000 </r>
       <r>   12.0483    0.0000 </r>
       <r>   13.7825    0.0000 </r>
       <r>   14.4719    0.0000 </r>
      </set>
      <set comment="kpoint 4">
       <r>   -0.0949    1.0000 </r>
       <r>    5.1263    1.0000 </r>
       <r>    5.6274    1.0000 </r>
       <r>    7.6167    1.0000 </r>
       <r>    8.9262    0.9073 </r>
       <r>   11.9008    0.0000 </r>
       <r>   13.7754    0.0000 </r>
       <r>   14.2376    0.0000 </r>
      </set>
      <set comment="kpoint 5">
       <r>    2.1037    1.0000 </r>
       <r>    2.6515    1.0000 </r>
       <r>    6.5286    1.0000 </r>
       <r>    6.6848    1.0000 </r>
       <r>    8.8357    0.9752 </r>
       <r>   10.8879    0.0000 </r>
       <r>   13.5863    0.0000 </r>
       <r>   14.6556    0.0000 </r>
      </set>
      <set comment="kpoint 6">
       <r>   -4.5550    1.0000 </r>
       <r>    5.1790    1.0000 </r>
       <r>    6.0655    1.0000 </r>
       <r>    7.4338    1.0000 </r>
       <r>   11.0123    0.0000 </r>
       <r>   15.6103    0.0000 </r>
       <r>   17.4288    0.0000 </r>
       <r>   18.2289    0.0000 </r>
      </set>
      <set comment="kpoint 7">
       <r>   -2.1473    1.0000 </r>
       <r>    4.6391    1.0000 </r>
       <r>    8.1792    1.0000 </r>
       <r>    9.1071    0.5179 </r>
       <r>   10.1922    0.0000 </r>
       <r>   11.0327    0.0000 </r>
       <r>   14.5988    0.0000 </r>
       <r>   14.6054    0.0000 </r>
      </set>
      <set comment="kpoint 8">
       <r>   -0.3259    1.0000 </r>
       <r>    5.2341    1.0000 </r>
       <r>    6.2229    1.0000 </r>
       <r>    7.1511    1.0000 </r>
       <r>    9.8265    0.0000 </r>
       <r>   12.4578    0.0000 </r>
       <r>   12.8774    0.0000 </r>
       <r>   13.7742    0.0000 </r>
      </set>
      <set comment="kpoint 9">
       <r>    1.9714    1.0000 </r>
       <r>    3.2267    1.0000 </r>
       <r>    5.3564    1.0000 </r>
       <r>    6.3896    1.0000 </r>
       <r>    9.9074    0.0000 </r>
       <r>   11.8553    0.0000 </r>
       <r>   12.8764    0.0000 </r>
       <r>   15.3580    0.0000 </r>
      </set>
      <set comment="kpoint 10">
       <r>    0.5960    1.0000 </r>
       <r>    3.9112    1.0000 </r>
       <r>    4.9752    1.0000 </r>
       <r>    7.6602    1.0000 </r>
       <r>    9.2476    0.1715 </r>
       <r>   12.2513    0.0000 </r>
       <r>   13.5251    0.0000 </r>
       <r>   15.2342    0.0000 </r>
      </set>
      <set comment="kpoint 11">
       <r>   -1.4444    1.0000 </r>
       <r>    3.1039    1.0000 </r>
       <r>    7.5907    1.0000 </r>
       <r>    8.2346    1.0000 </r>
       <r>   10.3885    0.0000 </r>
       <r>   12.6105    0.0000 </r>
       <r>   12.8847    0.0000 </r>
       <r>   15.3712    0.0000 </r>
      </set>
      <set comment="kpoint 12">
       <r>   -2.9551    1.0000 </r>
       <r>    2.7752    1.0000 </r>
       <r>    7.2934    1.0000 </r>
       <r>    9.8601    0.0000 </r>
       <r>   12.0474    0.0000 </r>
       <r>   12.5613    0.0000 </r>
       <r>   14.1180    0.0000 </r>
       <r>   15.5975    0.0000 </r>
      </set>
      <set comment="kpoint 13">
       <r>   -3.9160    1.0000 </r>
       <r>    2.9651    1.0000 </r>
       <r>    6.9453    1.0000 </r>
       <r>    8.5923    0.9999 </r>
       <r>   13.3163    0.0000 </r>
       <r>   13.5999    0.0000 </r>
       <r>   15.0456    0.0000 </r>
       <r>   16.5274    0.0000 </r>
      </set>
      <set comment="kpoint 14">
       <r>   -4.3170    1.0000 </r>
       <r>    3.6307    1.0000 </r>
       <r>    6.1015    1.0000 </r>
       <r>    8.4967    1.0000 </r>
       <r>   12.3240    0.0000 </r>
       <r>   13.7918    0.0000 </r>
       <r>   16.3225    0.0000 </r>
       <r>   19.2167    0.0000 </r>
      </set>
      <set comment="kpoint 15">
       <r>   -4.1538    1.0000 </r>
       <r>    4.4178    1.0000 </r>
       <r>    5.7042    1.0000 </r>
       <r>    8.8795    0.9510 </r>
       <r>   12.1381    0.0000 </r>
       <r>   13.9054    0.0000 </r>
       <r>   16.0160    0.0000 </r>
       <r>   17.5383    0.0000 </r>
      </set>
      <set comment="kpoint 16">
       <r>    1.8771    1.0000 </r>
       <r>    4.1514    1.0000 </r>
       <r>    4.2329    1.0000 </r>
       <r>    6.3114    1.0000 </r>
       <r>   10.5585    0.0000 </r>
       <r>   11.7457    0.0000 </r>
       <r>   13.6234    0.0000 </r>
       <r>   14.2337    0.0000 </r>
      </set>
      <set comment="kpoint 17">
       <r>    1.5074    1.0000 </r>
       <r>    2.6260    1.0000 </r>
       <r>    4.7305    1.0000 </r>
       <r>    7.6361    1.0000 </r>
       <r>    9.8389    0.0000 </r>
       <r>   11.2335    0.0000 </r>
       <r>   14.9155    0.0000 </r>
       <r>   15.8178    0.0000 </r>
      </set>
      <set comment="kpoint 18">
       <r>   -0.6290    1.0000 </r>
       <r>    1.6623    1.0000 </r>
       <r>    7.7621    1.0000 </r>
       <r>    8.3891    1.0000 </r>
       <r>    9.9831    0.0000 </r>
       <r>   11.7254    0.0000 </r>
       <r>   13.4782    0.0000 </r>
       <r>   15.4688    0.0000 </r>
      </set>
      <set comment="kpoint 19">
       <r>   -2.2482    1.0000 </r>
       <r>    1.2164    1.0000 </r>
       <r>    7.9367    1.0000 </r>
       <r>   10.3710    0.0000 </r>
       <r>   11.1067    0.0000 </r>
       <r>   12.1622    0.0000 </r>
       <r>   13.5180    0.0000 </r>
       <r>   14.5137    0.0000 </r>
      </set>
      <set comment="kpoint 20">
       <r>   -3.3235    1.0000 </r>
       <r>    1.3070    1.0000 </r>
       <r>    7.5000    1.0000 </r>
       <r>    9.3296    0.0633 </r>
       <r>   11.8741    0.0000 </r>
       <r>   13.6929    0.0000 </r>
       <r>   15.5484    0.0000 </r>
       <r>   16.1366    0.0000 </r>
      </set>
      <set comment="kpoint 21">
       <r>   -3.8419    1.0000 </r>
       <r>    1.9211    1.0000 </r>
       <r>    6.5311    1.0000 </r>
       <r>    9.2720    0.1312 </r>
       <r>   12.0758    0.0000 </r>
       <r>   14.5151    0.0000 </r>
       <r>   14.8282    0.0000 </r>
       <r>   19.0916    0.0000 </r>
      </set>
      <set comment="kpoint 22">
       <r>   -3.7977    1.0000 </r>
       <r>    3.0045    1.0000 </r>
       <r>    5.6780    1.0000 </r>
       <r>    9.9412    0.0000 </r>
       <r>   12.1993    0.0000 </r>
       <r>   13.7365    0.0000 </r>
       <r>   15.4006    0.0000 </r>
       <r>   16.9898    0.0000 </r>
      </set>
      <set comment="kpoint 23">
       <r>   -3.1918    1.0000 </r>
       <r>    4.1847    1.0000 </r>
       <r>    5.6584    1.0000 </r>
       <r>   10.3496    0.0000 </r>
       <r>   12.3819    0.0000 </r>
       <r>   12.6528    0.0000 </r>
       <r>   13.9033    0.0000 </r>
       <r>   15.0950    0.0000 </r>
      </set>
      <set comment="kpoint 24">
       <r>    0.4072    1.0000 </r>
       <r>    0.4157    1.0000 </r>
       <r>    7.7060    1.0000 </r>
       <r>    8.7753    0.9916 </r>
       <r>    9.6835    0.0000 </r>
       <r>   11.3122    0.0000 </r>
       <r>   14.0977    0.0000 </r>
       <r>   14.8759    0.0000 </r>
      </set>
      <set comment="kpoint 25">
       <r>   -1.3121    1.0000 </r>
       <r>   -0.1529    1.0000 </r>
       <r>    8.7780    0.9912 </r>
       <r>    9.7740    0.0000 </r>
       <r>   10.9902    0.0000 </r>
       <r>   12.1979    0.0000 </r>
       <r>   13.2392    0.0000 </r>
       <r>   13.5480    0.0000 </r>
      </set>
      <set comment="kpoint 26">
       <r>   -2.4982    1.0000 </r>
       <r>   -0.1721    1.0000 </r>
       <r>    8.2783    1.0000 </r>
       <r>   10.1742    0.0000 </r>
       <r>   10.4871    0.0000 </r>
       <r>   12.3794    0.0000 </r>
       <r>   15.9015    0.0000 </r>
       <r>   15.9043    0.0000 </r>
      </set>
      <set comment="kpoint 27">
       <r>   -3.1318    1.0000 </r>
       <r>    0.3510    1.0000 </r>
       <r>    7.2010    1.0000 </r>
       <r>   10.0670    0.0000 </r>
       <r>   10.5483    0.0000 </r>
       <r>   13.4047    0.0000 </r>
       <r>   17.0730    0.0000 </r>
       <r>   18.8651    0.0000 </r>
      </set>
      <set comment="kpoint 28">
       <r>   -3.2061    1.0000 </r>
       <r>    1.3984    1.0000 </r>
       <r>    6.1843    1.0000 </r>
       <r>   10.5803    0.0000 </r>
       <r>   10.7790    0.0000 </r>
       <r>   14.5149    0.0000 </r>
       <r>   15.8509    0.0000 </r>
       <r>   16.2798    0.0000 </r>
      </set>
      <set comment="kpoint 29">
       <r>   -2.7202    1.0000 </r>
       <r>    2.9036    1.0000 </r>
       <r>    5.6580    1.0000 </r>
       <r>   10.5228    0.0000 </r>
       <r>   11.1448    0.0000 </r>
       <r>   12.7550    0.0000 </r>
       <r>   14.6643    0.0000 </r>
       <r>   15.9051    0.0000 </r>
      </set>
      <set comment="kpoint 30">
       <r>   -1.6793    1.0000 </r>
       <r>    4.4761    1.0000 </r>
       <r>    6.0313    1.0000 </r>
       <r>    7.9772    1.0000 </r>
       <r>   10.9529    0.0000 </r>
       <r>   13.0229    0.0000 </r>
       <r>   13.8133    0.0000 </r>
       <r>   13.8430    0.0000 </r>
      </set>
      <set comment="kpoint 31">
       <r>   -1.4453    1.0000 </r>
       <r>   -1.4453    1.0000 </r>
       <r>    9.2668    0.1391 </r>
       <r>    9.2668    0.1391 </r>
       <r>   11.2002    0.0000 </r>
       <r>   11.2002    0.0000 </r>
       <r>   15.8309    0.0000 </r>
       <r>   15.8309    0.0000 </r>
      </set>
      <set comment="kpoint 32">
       <r>   -2.1917    1.0000 </r>
       <r>   -1.0274    1.0000 </r>
       <r>    8.0958    1.0000 </r>
       <r>    9.2155    0.2353 </r>
       <r>   11.0059    0.0000 </r>
       <r>   12.1200    0.0000 </r>
       <r>   18.6301    0.0000 </r>
       <r>   18.7085    0.0000 </r>
      </set>
      <set comment="kpoint 33">
       <r>   -2.3826    1.0000 </r>
       <r>   -0.0659    1.0000 </r>
       <r>    6.9546    1.0000 </r>
       <r>    9.1744    0.3334 </r>
       <r>   11.5946    0.0000 </r>
       <r>   13.6059    0.0000 </r>
       <r>   15.4128    0.0000 </r>
       <r>   16.8700    0.0000 </r>
      </set>
      <set comment="kpoint 34">
       <r>   -2.0162    1.0000 </r>
       <r>    1.4139    1.0000 </r>
       <r>    6.2458    1.0000 </r>
       <r>    9.4518    0.0084 </r>
       <r>   10.6217    0.0000 </r>
       <r>   13.3572    0.0000 </r>
       <r>   14.4146    0.0000 </r>
       <r>   16.4098    0.0000 </r>
      </set>
      <set comment="kpoint 35">
       <r>   -1.0968    1.0000 </r>
       <r>    3.3308    1.0000 </r>
       <r>    6.0884    1.0000 </r>
       <r>    7.4801    1.0000 </r>
       <r>   10.0824    0.0000 </r>
       <r>   12.4859    0.0000 </r>
       <r>   14.4662    0.0000 </r>
       <r>   15.2435    0.0000 </r>
      </set>
      <set comment="kpoint 36">
       <r>    0.3637    1.0000 </r>
       <r>    4.5760    1.0000 </r>
       <r>    5.4544    1.0000 </r>
       <r>    6.8163    1.0000 </r>
       <r>    9.2897    0.1064 </r>
       <r>   11.8670    0.0000 </r>
       <r>   12.4697    0.0000 </r>
       <r>   15.6643    0.0000 </r>
      </set>
      <set comment="kpoint 37">
       <r>   -1.3337    1.0000 </r>
       <r>   -1.3319    1.0000 </r>
       <r>    7.9462    1.0000 </r>
       <r>    7.9697    1.0000 </r>
       <r>   12.3797    0.0000 </r>
       <r>   12.7534    0.0000 </r>
       <r>   15.2370    0.0000 </r>
       <r>   16.8407    0.0000 </r>
      </set>
      <set comment="kpoint 38">
       <r>   -1.0849    1.0000 </r>
       <r>    0.0650    1.0000 </r>
       <r>    7.1108    1.0000 </r>
       <r>    8.1938    1.0000 </r>
       <r>   10.4595    0.0000 </r>
       <r>   14.1324    0.0000 </r>
       <r>   14.2588    0.0000 </r>
       <r>   15.4152    0.0000 </r>
      </set>
      <set comment="kpoint 39">
       <r>   -0.2871    1.0000 </r>
       <r>    1.9674    1.0000 </r>
       <r>    6.6945    1.0000 </r>
       <r>    7.2219    1.0000 </r>
       <r>    8.8951    0.9387 </r>
       <r>   12.1434    0.0000 </r>
       <r>   15.4329    0.0000 </r>
       <r>   16.5414    0.0000 </r>
      </set>
      <set comment="kpoint 40">
       <r>    1.0455    1.0000 </r>
       <r>    3.9970    1.0000 </r>
       <r>    4.5758    1.0000 </r>
       <r>    6.9724    1.0000 </r>
       <r>    9.1743    0.3336 </r>
       <r>   11.2549    0.0000 </r>
       <r>   12.9613    0.0000 </r>
       <r>   16.7557    0.0000 </r>
      </set>
      <set comment="kpoint 41">
       <r>    1.7427    1.0000 </r>
       <r>    3.0065    1.0000 </r>
       <r>    6.6039    1.0000 </r>
       <r>    7.7226    1.0000 </r>
       <r>    7.9167    1.0000 </r>
       <r>   10.6702    0.0000 </r>
       <r>   12.5246    0.0000 </r>
       <r>   15.6385    0.0000 </r>
      </set>
      <set comment="kpoint 42">
       <r>    0.7329    1.0000 </r>
       <r>    0.7503    1.0000 </r>
       <r>    6.9419    1.0000 </r>
       <r>    7.6385    1.0000 </r>
       <r>    7.9418    1.0000 </r>
       <r>   12.0288    0.0000 </r>
       <r>   16.0189    0.0000 </r>
       <r>   17.0201    0.0000 </r>
      </set>
      <set comment="kpoint 43">
       <r>    1.9379    1.0000 </r>
       <r>    3.0070    1.0000 </r>
       <r>    4.1158    1.0000 </r>
       <r>    7.6171    1.0000 </r>
       <r>    8.5929    0.9999 </r>
       <r>   10.6396    0.0000 </r>
       <r>   14.5423    0.0000 </r>
       <r>   16.3087    0.0000 </r>
      </set>
      <set comment="kpoint 44">
       <r>    1.4272    1.0000 </r>
       <r>    3.7542    1.0000 </r>
       <r>    5.8019    1.0000 </r>
       <r>    7.5131    1.0000 </r>
       <r>    8.7188    0.9974 </r>
       <r>   11.0463    0.0000 </r>
       <r>   11.7886    0.0000 </r>
       <r>   15.1660    0.0000 </r>
      </set>
      <set comment="kpoint 45">
       <r>   -0.5577    1.0000 </r>
       <r>    5.9015    1.0000 </r>
       <r>    6.6721    1.0000 </r>
       <r>    7.7440    1.0000 </r>
       <r>    8.6850    0.9988 </r>
       <r>   11.3015    0.0000 </r>
       <r>   12.8391    0.0000 </r>
       <r>   14.1248    0.0000 </r>
      </set>
      <set comment="kpoint 46">
       <r>    1.3180    1.0000 </r>
       <r>    4.6902    1.0000 </r>
       <r>    4.7388    1.0000 </r>
       <r>    7.5200    1.0000 </r>
       <r>    9.1823    0.3133 </r>
       <r>   10.5027    0.0000 </r>
       <r>   12.9360    0.0000 </r>
       <r>   13.7374    0.0000 </r>
      </set>
      <set comment="kpoint 47">
       <r>   -0.7909    1.0000 </r>
       <r>    6.6649    1.0000 </r>
       <r>    6.9436    1.0000 </r>
       <r>    7.6231    1.0000 </r>
       <r>    9.1530    0.3899 </r>
       <r>   11.6386    0.0000 </r>
       <r>   11.7153    0.0000 </r>
       <r>   12.8693    0.0000 </r>
      </set>
      <set comment="kpoint 48">
       <r>   -2.3829    1.0000 </r>
       <r>    6.0413    1.0000 </r>
       <r>    7.2251    1.0000 </r>
       <r>    9.0316    0.7187 </r>
       <r>   10.7091    0.0000 </r>
       <r>   11.5169    0.0000 </r>
       <r>   13.0933    0.0000 </r>
       <r>   14.4322    0.0000 </r>
      </set>
      <set comment="kpoint 49">
       <r>   -2.5007    1.0000 </r>
       <r>    6.3492    1.0000 </r>
       <r>    7.9879    1.0000 </r>
       <r>    8.8964    0.9376 </r>
       <r>   10.5162    0.0000 </r>
       <r>   11.0762    0.0000 </r>
       <r>   13.1630    0.0000 </r>
       <r>   13.8611    0.0000 </r>
      </set>
      <set comment="kpoint 50">
       <r>   -3.6654    1.0000 </r>
       <r>    5.9939    1.0000 </r>
       <r>    6.8365    1.0000 </r>
       <r>    8.1726    1.0000 </r>
       <r>   11.8955    0.0000 </r>
       <r>   13.4088    0.0000 </r>
       <r>   13.7758    0.0000 </r>
       <r>   16.1555    0.0000 </r>
      </set>
      <set comment="kpoint 51">
       <r>   -4.3918    1.0000 </r>
       <r>    6.4201    1.0000 </r>
       <r>    6.5013    1.0000 </r>
       <r>    6.5013    1.0000 </r>
       <r>   10.8858    0.0000 </r>
       <r>   16.4464    0.0000 </r>
       <r>   16.6038    0.0000 </r>
       <r>   17.3374    0.0000 </r>
      </set>
      <set comment="kpoint 52">
       <r>   -1.5606    1.0000 </r>
       <r>    3.0147    1.0000 </r>
       <r>    8.3673    1.0000 </r>
       <r>    8.9049    0.9298 </r>
       <r>   10.1422    0.0000 </r>
       <r>   11.3745    0.0000 </r>
       <r>   14.0973    0.0000 </r>
       <r>   14.7700    0.0000 </r>
      </set>
      <set comment="kpoint 53">
       <r>    0.3686    1.0000 </r>
       <r>    3.7495    1.0000 </r>
       <r>    5.7964    1.0000 </r>
       <r>    6.7968    1.0000 </r>
       <r>   10.5792    0.0000 </r>
       <r>   13.2602    0.0000 </r>
       <r>   13.7422    0.0000 </r>
       <r>   14.5238    0.0000 </r>
      </set>
      <set comment="kpoint 54">
       <r>    2.5630    1.0000 </r>
       <r>    3.0796    1.0000 </r>
       <r>    4.9139    1.0000 </r>
       <r>    5.2362    1.0000 </r>
       <r>   11.1962    0.0000 </r>
       <r>   13.0034    0.0000 </r>
       <r>   14.0975    0.0000 </r>
       <r>   14.4355    0.0000 </r>
      </set>
      <set comment="kpoint 55">
       <r>   -4.0795    1.0000 </r>
       <r>    3.3446    1.0000 </r>
       <r>    4.8476    1.0000 </r>
       <r>   10.0601    0.0000 </r>
       <r>   12.0426    0.0000 </r>
       <r>   13.1611    0.0000 </r>
       <r>   17.8273    0.0000 </r>
       <r>   18.1201    0.0000 </r>
      </set>
      <set comment="kpoint 56">
       <r>    2.6316    1.0000 </r>
       <r>    3.7822    1.0000 </r>
       <r>    3.9551    1.0000 </r>
       <r>    5.0220    1.0000 </r>
       <r>   11.9700    0.0000 </r>
       <r>   13.3778    0.0000 </r>
       <r>   14.4383    0.0000 </r>
       <r>   14.5278    0.0000 </r>
      </set>
      <set comment="kpoint 57">
       <r>    1.2871    1.0000 </r>
       <r>    2.4210    1.0000 </r>
       <r>    5.5832    1.0000 </r>
       <r>    6.6104    1.0000 </r>
       <r>   11.4508    0.0000 </r>
       <r>   12.7374    0.0000 </r>
       <r>   14.0043    0.0000 </r>
       <r>   15.0688    0.0000 </r>
      </set>
      <set comment="kpoint 58">
       <r>   -0.7432    1.0000 </r>
       <r>    1.5570    1.0000 </r>
       <r>    8.4479    1.0000 </r>
       <r>    8.6564    0.9994 </r>
       <r>   10.5532    0.0000 </r>
       <r>   11.8956    0.0000 </r>
       <r>   12.8469    0.0000 </r>
       <r>   14.0347    0.0000 </r>
      </set>
      <set comment="kpoint 59">
       <r>   -3.6060    1.0000 </r>
       <r>    2.0509    1.0000 </r>
       <r>    4.8447    1.0000 </r>
       <r>   10.3219    0.0000 </r>
       <r>   11.2020    0.0000 </r>
       <r>   15.0035    0.0000 </r>
       <r>   16.6682    0.0000 </r>
       <r>   18.5371    0.0000 </r>
      </set>
      <set comment="kpoint 60">
       <r>   -3.4433    1.0000 </r>
       <r>    2.8007    1.0000 </r>
       <r>    4.4186    1.0000 </r>
       <r>   10.4509    0.0000 </r>
       <r>   11.5609    0.0000 </r>
       <r>   14.7877    0.0000 </r>
       <r>   14.9793    0.0000 </r>
       <r>   18.1601    0.0000 </r>
      </set>
      <set comment="kpoint 61">
       <r>    0.3000    1.0000 </r>
       <r>    0.3000    1.0000 </r>
       <r>    8.5102    1.0000 </r>
       <r>    8.5103    1.0000 </r>
       <r>   11.3585    0.0000 </r>
       <r>   11.3585    0.0000 </r>
       <r>   13.1134    0.0000 </r>
       <r>   13.1134    0.0000 </r>
      </set>
      <set comment="kpoint 62">
       <r>   -2.8989    1.0000 </r>
       <r>    0.5493    1.0000 </r>
       <r>    5.4415    1.0000 </r>
       <r>    8.7801    0.9908 </r>
       <r>   12.1126    0.0000 </r>
       <r>   15.3620    0.0000 </r>
       <r>   17.3390    0.0000 </r>
       <r>   18.3681    0.0000 </r>
      </set>
      <set comment="kpoint 63">
       <r>   -2.8551    1.0000 </r>
       <r>    1.6303    1.0000 </r>
       <r>    4.4825    1.0000 </r>
       <r>    8.8269    0.9786 </r>
       <r>   12.5645    0.0000 </r>
       <r>   14.6501    0.0000 </r>
       <r>   16.7637    0.0000 </r>
       <r>   17.6781    0.0000 </r>
      </set>
      <set comment="kpoint 64">
       <r>   -2.2521    1.0000 </r>
       <r>    2.8016    1.0000 </r>
       <r>    4.4746    1.0000 </r>
       <r>    9.2873    0.1095 </r>
       <r>   10.4736    0.0000 </r>
       <r>   14.2191    0.0000 </r>
       <r>   15.6662    0.0000 </r>
       <r>   16.3898    0.0000 </r>
      </set>
      <set comment="kpoint 65">
       <r>   -1.9632    1.0000 </r>
       <r>   -0.8079    1.0000 </r>
       <r>    6.3220    1.0000 </r>
       <r>    7.4393    1.0000 </r>
       <r>   13.0648    0.0000 </r>
       <r>   14.1475    0.0000 </r>
       <r>   18.1134    0.0000 </r>
       <r>   18.1941    0.0000 </r>
      </set>
      <set comment="kpoint 66">
       <r>   -2.0375    1.0000 </r>
       <r>    0.2433    1.0000 </r>
       <r>    5.1777    1.0000 </r>
       <r>    7.3873    1.0000 </r>
       <r>   13.0723    0.0000 </r>
       <r>   14.7174    0.0000 </r>
       <r>   16.6592    0.0000 </r>
       <r>   18.0121    0.0000 </r>
      </set>
      <set comment="kpoint 67">
       <r>   -1.5546    1.0000 </r>
       <r>    1.7539    1.0000 </r>
       <r>    4.6252    1.0000 </r>
       <r>    7.8131    1.0000 </r>
       <r>   10.0942    0.0000 </r>
       <r>   15.3317    0.0000 </r>
       <r>   15.7808    0.0000 </r>
       <r>   17.7489    0.0000 </r>
      </set>
      <set comment="kpoint 68">
       <r>   -0.5212    1.0000 </r>
       <r>    3.3322    1.0000 </r>
       <r>    5.0292    1.0000 </r>
       <r>    6.9404    1.0000 </r>
       <r>    8.7399    0.9959 </r>
       <r>   13.2418    0.0000 </r>
       <r>   14.8792    0.0000 </r>
       <r>   16.6115    0.0000 </r>
      </set>
      <set comment="kpoint 69">
       <r>   -1.0006    1.0000 </r>
       <r>   -0.9969    1.0000 </r>
       <r>    6.1621    1.0000 </r>
       <r>    6.1671    1.0000 </r>
       <r>   13.2036    0.0000 </r>
       <r>   15.0304    0.0000 </r>
       <r>   16.0244    0.0000 </r>
       <r>   18.0277    0.0000 </r>
      </set>
      <set comment="kpoint 70">
       <r>   -0.6356    1.0000 </r>
       <r>    0.4875    1.0000 </r>
       <r>    5.4199    1.0000 </r>
       <r>    6.5029    1.0000 </r>
       <r>    9.9002    0.0000 </r>
       <r>   15.5625    0.0000 </r>
       <r>   16.4023    0.0000 </r>
       <r>   17.6349    0.0000 </r>
      </set>
      <set comment="kpoint 71">
       <r>    0.2753    1.0000 </r>
       <r>    2.4153    1.0000 </r>
       <r>    5.2668    1.0000 </r>
       <r>    6.5951    1.0000 </r>
       <r>    7.4181    1.0000 </r>
       <r>   13.4320    0.0000 </r>
       <r>   15.9846    0.0000 </r>
       <r>   17.6676    0.0000 </r>
      </set>
      <set comment="kpoint 72">
       <r>    1.7073    1.0000 </r>
       <r>    3.6828    1.0000 </r>
       <r>    4.5885    1.0000 </r>
       <r>    6.0632    1.0000 </r>
       <r>    8.4878    1.0000 </r>
       <r>   11.5771    0.0000 </r>
       <r>   12.9740    0.0000 </r>
       <r>   17.1437    0.0000 </r>
      </set>
      <set comment="kpoint 73">
       <r>    1.2615    1.0000 </r>
       <r>    1.2893    1.0000 </r>
       <r>    6.0360    1.0000 </r>
       <r>    6.1547    1.0000 </r>
       <r>    6.7001    1.0000 </r>
       <r>   13.4063    0.0000 </r>
       <r>   17.3503    0.0000 </r>
       <r>   17.3819    0.0000 </r>
      </set>
      <set comment="kpoint 74">
       <r>    2.5353    1.0000 </r>
       <r>    3.3501    1.0000 </r>
       <r>    3.9380    1.0000 </r>
       <r>    6.4231    1.0000 </r>
       <r>    7.3792    1.0000 </r>
       <r>   11.7211    0.0000 </r>
       <r>   14.1624    0.0000 </r>
       <r>   15.9958    0.0000 </r>
      </set>
      <set comment="kpoint 75">
       <r>    1.0919    1.0000 </r>
       <r>    4.4961    1.0000 </r>
       <r>    6.0457    1.0000 </r>
       <r>    7.4401    1.0000 </r>
       <r>    8.4332    1.0000 </r>
       <r>   10.7175    0.0000 </r>
       <r>   11.6215    0.0000 </r>
       <r>   14.2595    0.0000 </r>
      </set>
      <set comment="kpoint 76">
       <r>    0.9789    1.0000 </r>
       <r>    5.3535    1.0000 </r>
       <r>    5.4055    1.0000 </r>
       <r>    7.7020    1.0000 </r>
       <r>    7.9670    1.0000 </r>
       <r>   10.6576    0.0000 </r>
       <r>   12.5223    0.0000 </r>
       <r>   13.1179    0.0000 </r>
      </set>
      <set comment="kpoint 77">
       <r>   -1.0251    1.0000 </r>
       <r>    7.4923    1.0000 </r>
       <r>    7.7834    1.0000 </r>
       <r>    8.3824    1.0000 </r>
       <r>    8.4867    1.0000 </r>
       <r>   10.5656    0.0000 </r>
       <r>   11.5435    0.0000 </r>
       <r>   12.1029    0.0000 </r>
      </set>
      <set comment="kpoint 78">
       <r>   -2.6187    1.0000 </r>
       <r>    7.9123    1.0000 </r>
       <r>    7.9123    1.0000 </r>
       <r>    7.9235    1.0000 </r>
       <r>   10.7237    0.0000 </r>
       <r>   11.1825    0.0000 </r>
       <r>   12.6771    0.0000 </r>
       <r>   13.4739    0.0000 </r>
      </set>
      <set comment="kpoint 79">
       <r>    3.4147    1.0000 </r>
       <r>    3.4147    1.0000 </r>
       <r>    4.0760    1.0000 </r>
       <r>    4.0760    1.0000 </r>
       <r>   13.2890    0.0000 </r>
       <r>   13.2890    0.0000 </r>
       <r>   15.0703    0.0000 </r>
       <r>   15.0704    0.0000 </r>
      </set>
      <set comment="kpoint 80">
       <r>   -3.1354    1.0000 </r>
       <r>    1.9447    1.0000 </r>
       <r>    3.6445    1.0000 </r>
       <r>    8.5968    0.9999 </r>
       <r>   12.9627    0.0000 </r>
       <r>   16.2116    0.0000 </r>
       <r>   17.4227    0.0000 </r>
       <r>   18.3331    0.0000 </r>
      </set>
      <set comment="kpoint 81">
       <r>   -2.4350    1.0000 </r>
       <r>    0.8906    1.0000 </r>
       <r>    3.7945    1.0000 </r>
       <r>    7.0356    1.0000 </r>
       <r>   14.1870    0.0000 </r>
       <r>   16.8194    0.0000 </r>
       <r>   17.8431    0.0000 </r>
       <r>   18.5432    0.0000 </r>
      </set>
      <set comment="kpoint 82">
       <r>   -2.2734    1.0000 </r>
       <r>    1.6316    1.0000 </r>
       <r>    3.3747    1.0000 </r>
       <r>    7.1831    1.0000 </r>
       <r>   13.1609    0.0000 </r>
       <r>   15.5278    0.0000 </r>
       <r>   18.0334    0.0000 </r>
       <r>   19.0060    0.0000 </r>
      </set>
      <set comment="kpoint 83">
       <r>   -1.5117    1.0000 </r>
       <r>   -0.3836    1.0000 </r>
       <r>    4.5974    1.0000 </r>
       <r>    5.6984    1.0000 </r>
       <r>   15.1500    0.0000 </r>
       <r>   16.0369    0.0000 </r>
       <r>   17.9118    0.0000 </r>
       <r>   18.1213    0.0000 </r>
      </set>
      <set comment="kpoint 84">
       <r>   -1.4686    1.0000 </r>
       <r>    0.6981    1.0000 </r>
       <r>    3.6237    1.0000 </r>
       <r>    5.7421    1.0000 </r>
       <r>   13.0743    0.0000 </r>
       <r>   16.6332    0.0000 </r>
       <r>   18.7637    0.0000 </r>
       <r>   19.2169    0.0000 </r>
      </set>
      <set comment="kpoint 85">
       <r>   -0.8703    1.0000 </r>
       <r>    1.8661    1.0000 </r>
       <r>    3.6253    1.0000 </r>
       <r>    6.2935    1.0000 </r>
       <r>    9.6980    0.0000 </r>
       <r>   16.5634    0.0000 </r>
       <r>   17.5161    0.0000 </r>
       <r>   18.1302    0.0000 </r>
      </set>
      <set comment="kpoint 86">
       <r>   -0.4606    1.0000 </r>
       <r>   -0.4556    1.0000 </r>
       <r>    4.5328    1.0000 </r>
       <r>    4.5337    1.0000 </r>
       <r>   13.0128    0.0000 </r>
       <r>   17.3603    0.0000 </r>
       <r>   18.1183    0.0000 </r>
       <r>   19.2466    0.0000 </r>
      </set>
      <set comment="kpoint 87">
       <r>    0.0203    1.0000 </r>
       <r>    1.0554    1.0000 </r>
       <r>    3.9776    1.0000 </r>
       <r>    4.9900    1.0000 </r>
       <r>    9.4962    0.0034 </r>
       <r>   16.9735    0.0000 </r>
       <r>   18.4696    0.0000 </r>
       <r>   19.1649    0.0000 </r>
      </set>
      <set comment="kpoint 88">
       <r>    1.0420    1.0000 </r>
       <r>    2.6366    1.0000 </r>
       <r>    4.3989    1.0000 </r>
       <r>    5.8796    1.0000 </r>
       <r>    6.4227    1.0000 </r>
       <r>   14.6128    0.0000 </r>
       <r>   16.1813    0.0000 </r>
       <r>   18.2411    0.0000 </r>
      </set>
      <set comment="kpoint 89">
       <r>    1.9308    1.0000 </r>
       <r>    1.9732    1.0000 </r>
       <r>    4.8314    1.0000 </r>
       <r>    4.8560    1.0000 </r>
       <r>    6.2575    1.0000 </r>
       <r>   14.9419    0.0000 </r>
       <r>   17.0834    0.0000 </r>
       <r>   17.4766    0.0000 </r>
      </set>
      <set comment="kpoint 90">
       <r>    2.9924    1.0000 </r>
       <r>    3.5909    1.0000 </r>
       <r>    4.1634    1.0000 </r>
       <r>    5.6637    1.0000 </r>
       <r>    6.2301    1.0000 </r>
       <r>   12.9895    0.0000 </r>
       <r>   14.1712    0.0000 </r>
       <r>   15.1733    0.0000 </r>
      </set>
      <set comment="kpoint 91">
       <r>    0.8652    1.0000 </r>
       <r>    5.7928    1.0000 </r>
       <r>    5.8857    1.0000 </r>
       <r>    7.3020    1.0000 </r>
       <r>    7.3020    1.0000 </r>
       <r>   11.5982    0.0000 </r>
       <r>   12.3921    0.0000 </r>
       <r>   12.3922    0.0000 </r>
      </set>
      <set comment="kpoint 92">
       <r>   -1.7477    1.0000 </r>
       <r>    1.0010    1.0000 </r>
       <r>    2.7856    1.0000 </r>
       <r>    5.4808    1.0000 </r>
       <r>   15.6283    0.0000 </r>
       <r>   16.7843    0.0000 </r>
       <r>   18.2138    0.0000 </r>
       <r>   19.7459    0.0000 </r>
      </set>
      <set comment="kpoint 93">
       <r>   -0.8533    1.0000 </r>
       <r>    0.1862    1.0000 </r>
       <r>    3.1386    1.0000 </r>
       <r>    4.1605    1.0000 </r>
       <r>   16.2438    0.0000 </r>
       <r>   16.5298    0.0000 </r>
       <r>   18.7950    0.0000 </r>
       <r>   19.5239    0.0000 </r>
      </set>
      <set comment="kpoint 94">
       <r>   -0.6933    1.0000 </r>
       <r>    0.9229    1.0000 </r>
       <r>    2.7228    1.0000 </r>
       <r>    4.3137    1.0000 </r>
       <r>   12.8571    0.0000 </r>
       <r>   18.4522    0.0000 </r>
       <r>   19.8719    0.0000 </r>
       <r>   20.2305    0.0000 </r>
      </set>
      <set comment="kpoint 95">
       <r>    0.2250    1.0000 </r>
       <r>    0.2315    1.0000 </r>
       <r>    3.1833    1.0000 </r>
       <r>    3.1843    1.0000 </r>
       <r>   12.7799    0.0000 </r>
       <r>   19.3908    0.0000 </r>
       <r>   20.1099    0.0000 </r>
       <r>   20.1635    0.0000 </r>
      </set>
      <set comment="kpoint 96">
       <r>    0.8213    1.0000 </r>
       <r>    1.3967    1.0000 </r>
       <r>    3.1902    1.0000 </r>
       <r>    3.7582    1.0000 </r>
       <r>    9.2891    0.1072 </r>
       <r>   18.0843    0.0000 </r>
       <r>   19.4772    0.0000 </r>
       <r>   19.7407    0.0000 </r>
      </set>
      <set comment="kpoint 97">
       <r>    2.3726    1.0000 </r>
       <r>    2.4321    1.0000 </r>
       <r>    4.1857    1.0000 </r>
       <r>    4.1857    1.0000 </r>
       <r>    6.1322    1.0000 </r>
       <r>   15.9883    0.0000 </r>
       <r>   16.9799    0.0000 </r>
       <r>   16.9799    0.0000 </r>
      </set>
      <set comment="kpoint 98">
       <r>   -0.0499    1.0000 </r>
       <r>    0.5269    1.0000 </r>
       <r>    2.3476    1.0000 </r>
       <r>    2.9175    1.0000 </r>
       <r>   16.3992    0.0000 </r>
       <r>   16.4577    0.0000 </r>
       <r>   20.3039    0.0000 </r>
       <r>   20.8817    0.0000 </r>
      </set>
      <set comment="kpoint 99">
       <r>    0.6818    1.0000 </r>
       <r>    0.6898    1.0000 </r>
       <r>    2.5039    1.0000 </r>
       <r>    2.5040    1.0000 </r>
       <r>   12.6956    0.0000 </r>
       <r>   20.0385    0.0000 </r>
       <r>   21.0429    0.0000 </r>
       <r>   21.0537    0.0000 </r>
      </set>
     </set>
    </set>
   </array>
  </eigenvalues>
  <separator name="orbital magnetization" >
   <v name="MAGDIPOLOUT">      0.00000000      0.00000000      0.00000000</v>
  </separator>
  <dos>
   <i name="efermi">      9.11347251 </i>
   <total>
    <array>
     <dimension dim="1">gridpoints</dimension>
     <dimension dim="2">spin</dimension>
     <field>energy</field>
     <field>total</field>
     <field>integrated</field>
     <set>
      <set comment="spin 1">
       <r>    -6.5550     0.0000     0.0000 </r>
       <r>    -6.4563     0.0000     0.0000 </r>
       <r>    -6.3577     0.0000     0.0000 </r>
       <r>    -6.2590     0.0000     0.0000 </r>
       <r>    -6.1603     0.0000     0.0000 </r>
       <r>    -6.0616     0.0000     0.0000 </r>
       <r>    -5.9629     0.0000     0.0000 </r>
       <r>    -5.8642     0.0000     0.0000 </r>
       <r>    -5.7655     0.0000     0.0000 </r>
       <r>    -5.6668     0.0000     0.0000 </r>
       <r>    -5.5681     0.0000     0.0000 </r>
       <r>    -5.4694     0.0000     0.0000 </r>
       <r>    -5.3707     0.0000     0.0000 </r>
       <r>    -5.2720     0.0000     0.0000 </r>
       <r>    -5.1733     0.0000     0.0000 </r>
       <r>    -5.0746     0.0000     0.0000 </r>
       <r>    -4.9759     0.0001     0.0000 </r>
       <r>    -4.8772     0.0008     0.0001 </r>
       <r>    -4.7785     0.0039     0.0005 </r>
       <r>    -4.6798     0.0125     0.0017 </r>
       <r>    -4.5811     0.0285     0.0045 </r>
       <r>    -4.4824     0.0538     0.0098 </r>
       <r>    -4.3837     0.0899     0.0187 </r>
       <r>    -4.2850     0.1271     0.0313 </r>
       <r>    -4.1863     0.1444     0.0455 </r>
       <r>    -4.0877     0.1408     0.0594 </r>
       <r>    -3.9890     0.1451     0.0737 </r>
       <r>    -3.8903     0.1771     0.0912 </r>
       <r>    -3.7916     0.2134     0.1123 </r>
       <r>    -3.6929     0.2217     0.1341 </r>
       <r>    -3.5942     0.2125     0.1551 </r>
       <r>    -3.4955     0.2186     0.1767 </r>
       <r>    -3.3968     0.2447     0.2008 </r>
       <r>    -3.2981     0.2727     0.2278 </r>
       <r>    -3.1994     0.2896     0.2563 </r>
       <r>    -3.1007     0.2889     0.2849 </r>
       <r>    -3.0020     0.2832     0.3128 </r>
       <r>    -2.9033     0.2885     0.3413 </r>
       <r>    -2.8046     0.2838     0.3693 </r>
       <r>    -2.7059     0.2541     0.3944 </r>
       <r>    -2.6072     0.2354     0.4176 </r>
       <r>    -2.5085     0.2710     0.4443 </r>
       <r>    -2.4098     0.3509     0.4790 </r>
       <r>    -2.3111     0.4246     0.5209 </r>
       <r>    -2.2124     0.4637     0.5666 </r>
       <r>    -2.1137     0.4751     0.6135 </r>
       <r>    -2.0150     0.4503     0.6580 </r>
       <r>    -1.9163     0.3611     0.6936 </r>
       <r>    -1.8177     0.2471     0.7180 </r>
       <r>    -1.7190     0.2085     0.7386 </r>
       <r>    -1.6203     0.2862     0.7668 </r>
       <r>    -1.5216     0.4200     0.8083 </r>
       <r>    -1.4229     0.5028     0.8579 </r>
       <r>    -1.3242     0.4815     0.9054 </r>
       <r>    -1.2255     0.4165     0.9465 </r>
       <r>    -1.1268     0.4028     0.9863 </r>
       <r>    -1.0281     0.4409     1.0298 </r>
       <r>    -0.9294     0.4663     1.0758 </r>
       <r>    -0.8307     0.4735     1.1226 </r>
       <r>    -0.7320     0.4891     1.1708 </r>
       <r>    -0.6333     0.4977     1.2199 </r>
       <r>    -0.5346     0.4778     1.2671 </r>
       <r>    -0.4359     0.4464     1.3112 </r>
       <r>    -0.3372     0.4360     1.3542 </r>
       <r>    -0.2385     0.4570     1.3993 </r>
       <r>    -0.1398     0.4974     1.4484 </r>
       <r>    -0.0411     0.5260     1.5003 </r>
       <r>     0.0576     0.5273     1.5523 </r>
       <r>     0.1563     0.5448     1.6061 </r>
       <r>     0.2550     0.6106     1.6664 </r>
       <r>     0.3537     0.6646     1.7320 </r>
       <r>     0.4523     0.6397     1.7951 </r>
       <r>     0.5510     0.5614     1.8505 </r>
       <r>     0.6497     0.4909     1.8990 </r>
       <r>     0.7484     0.4482     1.9432 </r>
       <r>     0.8471     0.4333     1.9859 </r>
       <r>     0.9458     0.4581     2.0312 </r>
       <r>     1.0445     0.5094     2.0814 </r>
       <r>     1.1432     0.5572     2.1364 </r>
       <r>     1.2419     0.6165     2.1973 </r>
       <r>     1.3406     0.6915     2.2655 </r>
       <r>     1.4393     0.7229     2.3369 </r>
       <r>     1.5380     0.6874     2.4047 </r>
       <r>     1.6367     0.6394     2.4678 </r>
       <r>     1.7354     0.6221     2.5292 </r>
       <r>     1.8341     0.6423     2.5926 </r>
       <r>     1.9328     0.6683     2.6586 </r>
       <r>     2.0315     0.6071     2.7185 </r>
       <r>     2.1302     0.4332     2.7612 </r>
       <r>     2.2289     0.2753     2.7884 </r>
       <r>     2.3276     0.2579     2.8139 </r>
       <r>     2.4263     0.3639     2.8498 </r>
       <r>     2.5250     0.4923     2.8984 </r>
       <r>     2.6237     0.5735     2.9550 </r>
       <r>     2.7223     0.6027     3.0145 </r>
       <r>     2.8210     0.6208     3.0757 </r>
       <r>     2.9197     0.6738     3.1422 </r>
       <r>     3.0184     0.7462     3.2159 </r>
       <r>     3.1171     0.7709     3.2920 </r>
       <r>     3.2158     0.7265     3.3637 </r>
       <r>     3.3145     0.6411     3.4269 </r>
       <r>     3.4132     0.5366     3.4799 </r>
       <r>     3.5119     0.4665     3.5260 </r>
       <r>     3.6106     0.5005     3.5753 </r>
       <r>     3.7093     0.6040     3.6350 </r>
       <r>     3.8080     0.6766     3.7017 </r>
       <r>     3.9067     0.6938     3.7702 </r>
       <r>     4.0054     0.6830     3.8376 </r>
       <r>     4.1041     0.6464     3.9014 </r>
       <r>     4.2028     0.5897     3.9596 </r>
       <r>     4.3015     0.5706     4.0159 </r>
       <r>     4.4002     0.6689     4.0820 </r>
       <r>     4.4989     0.8577     4.1666 </r>
       <r>     4.5976     0.9848     4.2638 </r>
       <r>     4.6963     0.9524     4.3578 </r>
       <r>     4.7950     0.8139     4.4381 </r>
       <r>     4.8937     0.6842     4.5057 </r>
       <r>     4.9923     0.6219     4.5670 </r>
       <r>     5.0910     0.6148     4.6277 </r>
       <r>     5.1897     0.6383     4.6907 </r>
       <r>     5.2884     0.6669     4.7565 </r>
       <r>     5.3871     0.6753     4.8232 </r>
       <r>     5.4858     0.6815     4.8905 </r>
       <r>     5.5845     0.7377     4.9633 </r>
       <r>     5.6832     0.8234     5.0445 </r>
       <r>     5.7819     0.8321     5.1267 </r>
       <r>     5.8806     0.7552     5.2012 </r>
       <r>     5.9793     0.7285     5.2731 </r>
       <r>     6.0780     0.8233     5.3544 </r>
       <r>     6.1767     0.9451     5.4476 </r>
       <r>     6.2754     0.9815     5.5445 </r>
       <r>     6.3741     0.9381     5.6371 </r>
       <r>     6.4728     0.9011     5.7260 </r>
       <r>     6.5715     0.9147     5.8163 </r>
       <r>     6.6702     0.9306     5.9081 </r>
       <r>     6.7689     0.9039     5.9973 </r>
       <r>     6.8676     0.8714     6.0834 </r>
       <r>     6.9663     0.8572     6.1680 </r>
       <r>     7.0650     0.8388     6.2507 </r>
       <r>     7.1637     0.8333     6.3330 </r>
       <r>     7.2623     0.8680     6.4187 </r>
       <r>     7.3610     0.9474     6.5122 </r>
       <r>     7.4597     1.0738     6.6181 </r>
       <r>     7.5584     1.2040     6.7370 </r>
       <r>     7.6571     1.2497     6.8603 </r>
       <r>     7.7558     1.1597     6.9748 </r>
       <r>     7.8545     0.9874     7.0722 </r>
       <r>     7.9532     0.8210     7.1532 </r>
       <r>     8.0519     0.6848     7.2208 </r>
       <r>     8.1506     0.5922     7.2793 </r>
       <r>     8.2493     0.5681     7.3353 </r>
       <r>     8.3480     0.6019     7.3948 </r>
       <r>     8.4467     0.6681     7.4607 </r>
       <r>     8.5454     0.7434     7.5341 </r>
       <r>     8.6441     0.8139     7.6144 </r>
       <r>     8.7428     0.8711     7.7004 </r>
       <r>     8.8415     0.8789     7.7871 </r>
       <r>     8.9402     0.8120     7.8672 </r>
       <r>     9.0389     0.7510     7.9414 </r>
       <r>     9.1376     0.7979     8.0201 </r>
       <r>     9.2363     0.8691     8.1059 </r>
       <r>     9.3350     0.7951     8.1844 </r>
       <r>     9.4337     0.5924     8.2428 </r>
       <r>     9.5323     0.4128     8.2836 </r>
       <r>     9.6310     0.3600     8.3191 </r>
       <r>     9.7297     0.4617     8.3647 </r>
       <r>     9.8284     0.6555     8.4294 </r>
       <r>     9.9271     0.7974     8.5081 </r>
       <r>    10.0258     0.7971     8.5867 </r>
       <r>    10.1245     0.6961     8.6554 </r>
       <r>    10.2232     0.6036     8.7150 </r>
       <r>    10.3219     0.6358     8.7778 </r>
       <r>    10.4206     0.8321     8.8599 </r>
       <r>    10.5193     1.0737     8.9658 </r>
       <r>    10.6180     1.1666     9.0810 </r>
       <r>    10.7167     1.0342     9.1830 </r>
       <r>    10.8154     0.7989     9.2619 </r>
       <r>    10.9141     0.6561     9.3266 </r>
       <r>    11.0128     0.6790     9.3937 </r>
       <r>    11.1115     0.7719     9.4698 </r>
       <r>    11.2102     0.8067     9.5495 </r>
       <r>    11.3089     0.7490     9.6234 </r>
       <r>    11.4076     0.6715     9.6897 </r>
       <r>    11.5063     0.6809     9.7569 </r>
       <r>    11.6050     0.7904     9.8349 </r>
       <r>    11.7037     0.9040     9.9241 </r>
       <r>    11.8023     0.9459    10.0174 </r>
       <r>    11.9010     0.9401    10.1102 </r>
       <r>    11.9997     0.9561    10.2046 </r>
       <r>    12.0984     1.0020    10.3035 </r>
       <r>    12.1971     0.9920    10.4014 </r>
       <r>    12.2958     0.8943    10.4896 </r>
       <r>    12.3945     0.8170    10.5703 </r>
       <r>    12.4932     0.8368    10.6529 </r>
       <r>    12.5919     0.9018    10.7419 </r>
       <r>    12.6906     0.9697    10.8376 </r>
       <r>    12.7893     1.0687    10.9430 </r>
       <r>    12.8880     1.1908    11.0606 </r>
       <r>    12.9867     1.2666    11.1856 </r>
       <r>    13.0854     1.2526    11.3092 </r>
       <r>    13.1841     1.1640    11.4241 </r>
       <r>    13.2828     1.0677    11.5295 </r>
       <r>    13.3815     1.0444    11.6325 </r>
       <r>    13.4802     1.0921    11.7403 </r>
       <r>    13.5789     1.1330    11.8521 </r>
       <r>    13.6776     1.1366    11.9643 </r>
       <r>    13.7763     1.1030    12.0732 </r>
       <r>    13.8750     0.9993    12.1718 </r>
       <r>    13.9737     0.8894    12.2596 </r>
       <r>    14.0723     0.9061    12.3490 </r>
       <r>    14.1710     0.9996    12.4477 </r>
       <r>    14.2697     1.0197    12.5483 </r>
       <r>    14.3684     1.0114    12.6481 </r>
       <r>    14.4671     1.0946    12.7561 </r>
       <r>    14.5658     1.1719    12.8718 </r>
       <r>    14.6645     1.0859    12.9790 </r>
       <r>    14.7632     0.8877    13.0666 </r>
       <r>    14.8619     0.7390    13.1395 </r>
       <r>    14.9606     0.7119    13.2098 </r>
       <r>    15.0593     0.7725    13.2860 </r>
       <r>    15.1580     0.8716    13.3721 </r>
       <r>    15.2567     0.9979    13.4705 </r>
       <r>    15.3554     1.1339    13.5825 </r>
       <r>    15.4541     1.1862    13.6995 </r>
       <r>    15.5528     1.0783    13.8060 </r>
       <r>    15.6515     0.8901    13.8938 </r>
       <r>    15.7502     0.7721    13.9700 </r>
       <r>    15.8489     0.7766    14.0467 </r>
       <r>    15.9476     0.8204    14.1276 </r>
       <r>    16.0463     0.8036    14.2069 </r>
       <r>    16.1450     0.7376    14.2797 </r>
       <r>    16.2437     0.7040    14.3492 </r>
       <r>    16.3423     0.7238    14.4207 </r>
       <r>    16.4410     0.7520    14.4949 </r>
       <r>    16.5397     0.7652    14.5704 </r>
       <r>    16.6384     0.7656    14.6460 </r>
       <r>    16.7371     0.7452    14.7195 </r>
       <r>    16.8358     0.7038    14.7890 </r>
       <r>    16.9345     0.6547    14.8536 </r>
       <r>    17.0332     0.5839    14.9112 </r>
       <r>    17.1319     0.4698    14.9576 </r>
       <r>    17.2306     0.3633    14.9934 </r>
       <r>    17.3293     0.3410    15.0271 </r>
       <r>    17.4280     0.3887    15.0655 </r>
       <r>    17.5267     0.4454    15.1094 </r>
       <r>    17.6254     0.4879    15.1576 </r>
       <r>    17.7241     0.4955    15.2065 </r>
       <r>    17.8228     0.4597    15.2518 </r>
       <r>    17.9215     0.4445    15.2957 </r>
       <r>    18.0202     0.5057    15.3456 </r>
       <r>    18.1189     0.5802    15.4029 </r>
       <r>    18.2176     0.5633    15.4585 </r>
       <r>    18.3163     0.4662    15.5045 </r>
       <r>    18.4150     0.3869    15.5427 </r>
       <r>    18.5137     0.3588    15.5781 </r>
       <r>    18.6123     0.3446    15.6121 </r>
       <r>    18.7110     0.3255    15.6442 </r>
       <r>    18.8097     0.2979    15.6736 </r>
       <r>    18.9084     0.2598    15.6992 </r>
       <r>    19.0071     0.2455    15.7235 </r>
       <r>    19.1058     0.2866    15.7518 </r>
       <r>    19.2045     0.3392    15.7852 </r>
       <r>    19.3032     0.3306    15.8179 </r>
       <r>    19.4019     0.2652    15.8440 </r>
       <r>    19.5006     0.1987    15.8637 </r>
       <r>    19.5993     0.1545    15.8789 </r>
       <r>    19.6980     0.1317    15.8919 </r>
       <r>    19.7967     0.1243    15.9042 </r>
       <r>    19.8954     0.1187    15.9159 </r>
       <r>    19.9941     0.1178    15.9275 </r>
       <r>    20.0928     0.1350    15.9408 </r>
       <r>    20.1915     0.1530    15.9559 </r>
       <r>    20.2902     0.1378    15.9695 </r>
       <r>    20.3889     0.0897    15.9784 </r>
       <r>    20.4876     0.0410    15.9825 </r>
       <r>    20.5863     0.0141    15.9838 </r>
       <r>    20.6850     0.0082    15.9847 </r>
       <r>    20.7837     0.0156    15.9862 </r>
       <r>    20.8823     0.0282    15.9890 </r>
       <r>    20.9810     0.0368    15.9926 </r>
       <r>    21.0797     0.0349    15.9961 </r>
       <r>    21.1784     0.0240    15.9984 </r>
       <r>    21.2771     0.0115    15.9996 </r>
       <r>    21.3758     0.0036    15.9999 </r>
       <r>    21.4745     0.0007    16.0000 </r>
       <r>    21.5732     0.0001    16.0000 </r>
       <r>    21.6719     0.0000    16.0000 </r>
       <r>    21.7706     0.0000    16.0000 </r>
       <r>    21.8693     0.0000    16.0000 </r>
       <r>    21.9680     0.0000    16.0000 </r>
       <r>    22.0667     0.0000    16.0000 </r>
       <r>    22.1654     0.0000    16.0000 </r>
       <r>    22.2641     0.0000    16.0000 </r>
       <r>    22.3628     0.0000    16.0000 </r>
       <r>    22.4615     0.0000    16.0000 </r>
       <r>    22.5602     0.0000    16.0000 </r>
       <r>    22.6589     0.0000    16.0000 </r>
       <r>    22.7576     0.0000    16.0000 </r>
       <r>    22.8563     0.0000    16.0000 </r>
       <r>    22.9550     0.0000    16.0000 </r>
       <r>    23.0537     0.0000    16.0000 </r>
      </set>
     </set>
    </array>
   </total>
  </dos>
 </calculation>
 <structure name="finalpos" >
  <crystal>
   <varray name="basis" >
    <v>      -2.45000000       2.45000000       1.27400000 </v>
    <v>       2.45000000      -2.45000000       1.27400000 </v>
    <v>       2.45000000       2.45000000      -1.27400000 </v>
   </varray>
   <i name="volume">     30.58874000 </i>
   <varray name="rec_basis" >
    <v>       0.00000000       0.20408163       0.39246468 </v>
    <v>       0.20408163       0.00000000       0.39246468 </v>
    <v>       0.20408163       0.20408163      -0.00000000 </v>
   </varray>
  </crystal>
  <varray name="positions" >
   <v>       0.25000000       0.75000000       0.50000000 </v>
   <v>       0.00000000       0.00000000       0.00000000 </v>
  </varray>
 </structure>
</modeling>
