unknown system                          
           1
    -2.450000    2.450000    1.274000
     2.450000   -2.450000    1.274000
     2.450000    2.450000   -1.274000
   Si
   2
Direct configuration=     1
   0.25000000  0.75000000  0.50000000
   0.00000000  0.00000000  0.00000000
unknown system                          
           1
    -2.429725    2.429725    1.306149
     2.429725   -2.429725    1.306149
     2.429725    2.429725   -1.306149
   Si
   2
Direct configuration=     2
   0.25000000  0.75000000  0.50000000
  -0.00000000  0.00000000  0.00000000
unknown system                          
           1
    -2.429417    2.429417    1.306637
     2.429417   -2.429417    1.306637
     2.429417    2.429417   -1.306637
   Si
   2
Direct configuration=     3
   0.25000000  0.75000000  0.50000000
  -0.00000000  0.00000000  0.00000000
unknown system                          
           1
    -2.428801    2.428801    1.307614
     2.428801   -2.428801    1.307614
     2.428801    2.428801   -1.307614
   Si
   2
Direct configuration=     4
   0.25000000  0.75000000  0.50000000
  -0.00000000  0.00000000  0.00000000
unknown system                          
           1
    -2.428564    2.428564    1.307989
     2.428564   -2.428564    1.307989
     2.428564    2.428564   -1.307989
   Si
   2
Direct configuration=     5
   0.25000000  0.75000000  0.50000000
  -0.00000000  0.00000000  0.00000000
unknown system                          
           1
    -2.428697    2.428697    1.307779
     2.428697   -2.428697    1.307779
     2.428697    2.428697   -1.307779
   Si
   2
Direct configuration=     6
   0.25000000  0.75000000  0.50000000
  -0.00000000  0.00000000  0.00000000
unknown system                          
           1
    -2.428760    2.428760    1.307678
     2.428760   -2.428760    1.307678
     2.428760    2.428760   -1.307678
   Si
   2
Direct configuration=     7
   0.25000000  0.75000000  0.50000000
  -0.00000000  0.00000000  0.00000000
unknown system                          
           1
    -2.428781    2.428781    1.307646
     2.428781   -2.428781    1.307646
     2.428781    2.428781   -1.307646
   Si
   2
Direct configuration=     8
   0.25000000  0.75000000  0.50000000
  -0.00000000  0.00000000  0.00000000
unknown system                          
           1
    -2.428790    2.428790    1.307632
     2.428790   -2.428790    1.307632
     2.428790    2.428790   -1.307632
   Si
   2
Direct configuration=     9
   0.25000000  0.75000000  0.50000000
  -0.00000000  0.00000000  0.00000000
unknown system                          
           1
    -2.428795    2.428795    1.307623
     2.428795   -2.428795    1.307623
     2.428795    2.428795   -1.307623
   Si
   2
Direct configuration=    10
   0.25000000  0.75000000  0.50000000
  -0.00000000  0.00000000  0.00000000
unknown system                          
           1
    -2.428798    2.428798    1.307619
     2.428798   -2.428798    1.307619
     2.428798    2.428798   -1.307619
   Si
   2
Direct configuration=    11
   0.25000000  0.75000000  0.50000000
  -0.00000000  0.00000000  0.00000000
unknown system                          
           1
    -2.428799    2.428799    1.307616
     2.428799   -2.428799    1.307616
     2.428799    2.428799   -1.307616
   Si
   2
Direct configuration=    12
   0.25000000  0.75000000  0.50000000
  -0.00000000  0.00000000  0.00000000
unknown system                          
           1
    -2.428800    2.428800    1.307615
     2.428800   -2.428800    1.307615
     2.428800    2.428800   -1.307615
   Si
   2
Direct configuration=    13
   0.25000000  0.75000000  0.50000000
  -0.00000000  0.00000000  0.00000000
unknown system                          
           1
    -2.428800    2.428800    1.307615
     2.428800   -2.428800    1.307615
     2.428800    2.428800   -1.307615
   Si
   2
Direct configuration=    14
   0.25000000  0.75000000  0.50000000
  -0.00000000  0.00000000  0.00000000
unknown system                          
           1
    -2.428801    2.428801    1.307615
     2.428801   -2.428801    1.307615
     2.428801    2.428801   -1.307615
   Si
   2
Direct configuration=    15
   0.25000000  0.75000000  0.50000000
  -0.00000000  0.00000000  0.00000000
