unknown system                          
   1.00000000000000     
    -2.450000    2.450000    1.274000
     2.450000   -2.450000    1.274000
     2.450000    2.450000   -1.274000
   Si
     2
Direct
  0.250000  0.750000  0.500000
  0.000000  0.000000  0.000000
 
   36   36   36
 -5.2678     -4.3371     -1.7830      1.7642      5.4936      8.6588      10.763      11.639      11.423      10.462    
  9.1839      7.8907      6.6982      5.6757      4.8561      4.2432      3.8244      3.5825      3.5036      3.5825    
  3.8244      4.2432      4.8561      5.6757      6.6982      7.8907      9.1839      10.462      11.423      11.639    
  10.763      8.6588      5.4936      1.7642     -1.7830     -4.3371     -4.3371     -4.8316     -3.5113     -.71567    
  2.8712      6.4458      9.3196      11.078      11.635      11.185      10.105      8.8105      7.5401      6.3916    
  5.4242      4.6624      4.1046      3.7360      3.5396      3.5034      3.6247      3.9111      4.3776      5.0414    
  5.9120      6.9798      8.2042      9.5078      10.752      11.589      11.602      10.483      8.1593      4.8712    
  1.1770     -2.1524     -1.7830     -3.5113     -3.5704     -1.9497     0.93169      4.3718      7.6121      10.050    
  11.367      11.558      10.869      9.6912      8.3996      7.1647      6.0708      5.1664      4.4670      3.9665    
  3.6487      3.4974      3.5029      3.6649      3.9931      4.5034      5.2116      6.1242      7.2260      8.4696    
  9.7716      10.970      11.696      11.556      10.292      7.8908      4.6549      1.1770      1.7642     -.71567    
 -1.9497     -1.6202     0.17941      2.9797      6.0979      8.8529      10.748      11.567      11.382      10.476    
  9.2372      7.9643      6.7771      5.7469      4.9108      4.2763      3.8334      3.5653      3.4574      3.5023    
  3.7022      4.0680      4.6160      5.3605      6.3045      7.4278      8.6774      9.9664      11.115      11.755    
  11.527      10.224      7.8908      4.8712      5.4936      2.8712     0.93169     0.17941     0.81177      2.6513    
  5.2115      7.8627      10.026      11.320      11.631      11.095      10.019      8.7582      7.5183      6.3897    
  5.4302      4.6654      4.0960      3.7091      3.4883      3.4209      3.5019      3.7353      4.1333      4.7115    
  5.4826      6.4461      7.5774      8.8202      10.086      11.187      11.773      11.527      10.292      8.1593    
  8.6588      6.4458      4.3718      2.9797      2.6513      3.4749      5.2160      7.4031      9.4871      11.005    
  11.694      11.531      10.703      9.5192      8.2684      7.0754      6.0147      5.1302      4.4372      3.9311    
  3.5972      3.4202      3.3893      3.5019      3.7635      4.1866      4.7864      5.5732      6.5435      7.6695    
  8.8929      10.126      11.187      11.755      11.556      10.483      10.763      9.3196      7.6121      6.0979    
  5.2115      5.2160      6.1103      7.6324      9.3544      10.825      11.700      11.829      11.266      10.227    
  9.0045      7.7829      6.6493      5.6630      4.8550      4.2322      3.7856      3.5004      3.3626      3.3635    
  3.5023      3.7857      4.2263      4.8379      5.6290      6.5932      7.7006      8.8929      10.086      11.115    
  11.696      11.602      11.639      11.078      10.050      8.8529      7.8627      7.4031      7.6325      8.4858    
  9.7014      10.915      11.780      12.069      11.725      10.862      9.7097      8.4929      7.3172      6.2527    
  5.3442      4.6116      4.0549      3.6630      3.4210      3.3169      3.3440      3.5029      3.8011      4.2507    
  4.8642      5.6478      6.5932      7.6695      8.8202      9.9664      10.970      11.589      11.423      11.635    
  11.367      10.748      10.026      9.4871      9.3544      9.7014      10.426      11.289      12.001      12.319    
  12.118      11.419      10.372      9.1894      8.0026      6.8867      5.8973      5.0666      4.4055      3.9092    
  3.5654      3.3604      3.2838      3.3309      3.5034      3.8090      4.2589      4.8642      5.6290      6.5435    
  7.5774      8.6774      9.7716      10.752      10.462      11.185      11.558      11.567      11.320      11.005    
  10.825      10.915      11.289      11.829      12.337      12.600      12.468      11.901      10.976      9.8584    
  8.6908      7.5524      6.5056      5.5931      4.8369      4.2410      3.7978      3.4947      3.3195      3.2639    
  3.3244      3.5036      3.8090      4.2507      4.8379      5.5732      6.4461      7.4278      8.4696      9.5078    
  9.1839      10.105      10.869      11.382      11.631      11.694      11.700      11.780      12.001      12.337    
  12.676      12.865      12.764      12.303      11.506      10.483      9.3661      8.2363      7.1593      6.1860    
  5.3484      4.6604      4.1214      3.7225      3.4518      3.2990      3.2572      3.3244      3.5034      3.8011    
  4.2263      4.7864      5.4826      6.3045      7.2260      8.2042      7.8907      8.8105      9.6912      10.476    
  11.095      11.531      11.829      12.069      12.319      12.600      12.865      13.019      12.954      12.596    
  11.936      11.038      10.008      8.9222      7.8467      6.8382      5.9379      5.1694      4.5407      4.0488    
  3.6845      3.4375      3.2990      3.2639      3.3309      3.5029      3.7857      4.1866      4.7115      5.3605    
  6.1242      6.9798      6.6982      7.5402      8.3997      9.2372      10.019      10.703      11.266      11.725    
  12.118      12.468      12.764      12.954      12.965      12.732      12.230      11.492      10.589      9.5877    
  8.5511      7.5393      6.6009      5.7687      5.0603      4.4802      4.0244      3.6845      3.4518      3.3195    
  3.2838      3.3440      3.5023      3.7635      4.1333      4.6160      5.2116      5.9120      5.6757      6.3916    
  7.1647      7.9644      8.7582      9.5192      10.227      10.862      11.419      11.901      12.303      12.596    
  12.732      12.659      12.346      11.804      11.073      10.202      9.2481      8.2721      7.3274      6.4553    
  5.6829      5.0236      4.4802      4.0488      3.7225      3.4947      3.3604      3.3169      3.3635      3.5019    
  3.7353      4.0680      4.5034      5.0414      4.8561      5.4242      6.0708      6.7771      7.5183      8.2684    
  9.0045      9.7097      10.372      10.976      11.506      11.936      12.230      12.346      12.253      11.940    
  11.421      10.726      9.9043      9.0102      8.0993      7.2193      6.4062      5.6829      5.0603      4.5407    
  4.1214      3.7978      3.5654      3.4210      3.3626      3.3893      3.5019      3.7022      3.9931      4.3776    
  4.2432      4.6624      5.1664      5.7469      6.3897      7.0754      7.7829      8.4929      9.1894      9.8584    
  10.483      11.038      11.492      11.804      11.940      11.873      11.596      11.120      10.479      9.7175    
  8.8878      8.0407      7.2193      6.4553      5.7687      5.1694      4.6604      4.2410      3.9092      3.6630    
  3.5004      3.4202      3.4209      3.5023      3.6649      3.9111      3.8244      4.1046      4.4671      4.9108    
  5.4302      6.0147      6.6493      7.3172      8.0027      8.6908      9.3661      10.008      10.589      11.073    
  11.421      11.596      11.573      11.347      10.929      10.351      9.6539      8.8878      8.0993      7.3274    
  6.6009      5.9379      5.3484      4.8369      4.4055      4.0549      3.7856      3.5972      3.4883      3.4574    
  3.5029      3.6247      3.5825      3.7360      3.9665      4.2763      4.6654      5.1302      5.6630      6.2527    
  6.8867      7.5524      8.2363      8.9222      9.5877      10.202      10.726      11.120      11.347      11.382    
  11.217      10.864      10.351      9.7175      9.0102      8.2721      7.5393      6.8382      6.1860      5.5931    
  5.0666      4.6116      4.2322      3.9311      3.7091      3.5653      3.4974      3.5034      3.5036      3.5396    
  3.6487      3.8334      4.0960      4.4372      4.8550      5.3442      5.8973      6.5056      7.1593      7.8467    
  8.5511      9.2481      9.9043      10.479      10.929      11.217      11.316      11.217      10.929      10.479    
  9.9043      9.2481      8.5511      7.8467      7.1593      6.5056      5.8973      5.3442      4.8550      4.4372    
  4.0960      3.8334      3.6487      3.5396      3.5825      3.5034      3.4974      3.5653      3.7091      3.9310    
  4.2322      4.6116      5.0666      5.5931      6.1860      6.8382      7.5393      8.2721      9.0102      9.7175    
  10.351      10.864      11.217      11.382      11.347      11.120      10.726      10.202      9.5877      8.9222    
  8.2363      7.5524      6.8867      6.2527      5.6630      5.1302      4.6654      4.2763      3.9665      3.7360    
  3.8244      3.6247      3.5029      3.4574      3.4883      3.5972      3.7856      4.0549      4.4055      4.8369    
  5.3484      5.9379      6.6009      7.3274      8.0993      8.8878      9.6539      10.351      10.929      11.347    
  11.573      11.596      11.421      11.073      10.589      10.008      9.3661      8.6908      8.0026      7.3172    
  6.6493      6.0147      5.4302      4.9108      4.4670      4.1046      4.2432      3.9110      3.6649      3.5023    
  3.4209      3.4201      3.5004      3.6630      3.9092      4.2410      4.6604      5.1694      5.7687      6.4553    
  7.2193      8.0407      8.8878      9.7175      10.479      11.120      11.596      11.873      11.940      11.804    
  11.492      11.038      10.483      9.8584      9.1894      8.4929      7.7829      7.0754      6.3897      5.7469    
  5.1664      4.6624      4.8561      4.3776      3.9931      3.7021      3.5019      3.3893      3.3626      3.4210    
  3.5654      3.7978      4.1214      4.5407      5.0603      5.6829      6.4062      7.2193      8.0993      9.0102    
  9.9043      10.726      11.421      11.940      12.253      12.346      12.230      11.936      11.506      10.976    
  10.372      9.7097      9.0045      8.2684      7.5183      6.7771      6.0708      5.4242      5.6757      5.0413    
  4.5033      4.0680      3.7353      3.5019      3.3635      3.3169      3.3604      3.4947      3.7225      4.0488    
  4.4802      5.0236      5.6829      6.4553      7.3274      8.2721      9.2481      10.202      11.073      11.804    
  12.346      12.659      12.732      12.596      12.303      11.901      11.419      10.862      10.227      9.5192    
  8.7582      7.9643      7.1647      6.3916      6.6982      5.9120      5.2116      4.6160      4.1333      3.7635    
  3.5023      3.3440      3.2838      3.3196      3.4518      3.6845      4.0244      4.4802      5.0603      5.7687    
  6.6009      7.5393      8.5511      9.5877      10.589      11.492      12.230      12.732      12.965      12.954    
  12.764      12.468      12.118      11.725      11.266      10.703      10.019      9.2372      8.3996      7.5401    
  7.8907      6.9798      6.1242      5.3605      4.7115      4.1866      3.7857      3.5029      3.3309      3.2639    
  3.2990      3.4375      3.6845      4.0488      4.5407      5.1694      5.9379      6.8382      7.8467      8.9222    
  10.008      11.038      11.936      12.596      12.954      13.019      12.865      12.600      12.319      12.069    
  11.829      11.531      11.095      10.476      9.6912      8.8105      9.1839      8.2042      7.2260      6.3045    
  5.4826      4.7864      4.2263      3.8011      3.5034      3.3244      3.2572      3.2990      3.4518      3.7225    
  4.1214      4.6604      5.3484      6.1860      7.1593      8.2363      9.3661      10.483      11.506      12.303    
  12.764      12.865      12.676      12.337      12.001      11.780      11.700      11.694      11.631      11.382    
  10.869      10.105      10.462      9.5078      8.4696      7.4278      6.4461      5.5732      4.8379      4.2507    
  3.8090      3.5037      3.3244      3.2639      3.3196      3.4947      3.7978      4.2410      4.8369      5.5931    
  6.5056      7.5524      8.6908      9.8584      10.976      11.901      12.468      12.600      12.337      11.829    
  11.289      10.915      10.825      11.005      11.320      11.567      11.558      11.185      11.423      10.752    
  9.7716      8.6774      7.5774      6.5435      5.6290      4.8642      4.2589      3.8090      3.5034      3.3309    
  3.2838      3.3604      3.5654      3.9092      4.4055      5.0666      5.8973      6.8867      8.0027      9.1894    
  10.372      11.419      12.118      12.319      12.001      11.289      10.426      9.7014      9.3544      9.4871    
  10.026      10.748      11.367      11.635      11.639      11.589      10.970      9.9664      8.8202      7.6695    
  6.5932      5.6478      4.8642      4.2507      3.8011      3.5029      3.3440      3.3169      3.4210      3.6630    
  4.0549      4.6116      5.3442      6.2527      7.3172      8.4929      9.7097      10.862      11.725      12.069    
  11.780      10.915      9.7014      8.4858      7.6324      7.4031      7.8627      8.8529      10.050      11.078    
  10.763      11.602      11.696      11.115      10.086      8.8929      7.7006      6.5932      5.6290      4.8379    
  4.2263      3.7857      3.5023      3.3635      3.3626      3.5004      3.7856      4.2322      4.8550      5.6630    
  6.6493      7.7829      9.0045      10.227      11.266      11.829      11.700      10.825      9.3544      7.6325    
  6.1103      5.2160      5.2115      6.0979      7.6121      9.3196      8.6588      10.483      11.556      11.755    
  11.187      10.126      8.8929      7.6695      6.5435      5.5732      4.7864      4.1866      3.7635      3.5019    
  3.3893      3.4201      3.5972      3.9310      4.4372      5.1302      6.0147      7.0754      8.2684      9.5192    
  10.703      11.531      11.694      11.005      9.4871      7.4031      5.2160      3.4749      2.6513      2.9797    
  4.3718      6.4458      5.4936      8.1593      10.292      11.527      11.773      11.187      10.086      8.8202    
  7.5774      6.4461      5.4826      4.7115      4.1333      3.7353      3.5019      3.4209      3.4883      3.7091    
  4.0960      4.6654      5.4302      6.3897      7.5183      8.7582      10.019      11.095      11.631      11.320    
  10.026      7.8627      5.2115      2.6513     0.81177     0.17941     0.93169      2.8712      1.7642      4.8712    
  7.8908      10.224      11.527      11.755      11.115      9.9664      8.6774      7.4278      6.3045      5.3605    
  4.6160      4.0680      3.7021      3.5023      3.4574      3.5653      3.8334      4.2763      4.9108      5.7469    
  6.7771      7.9644      9.2372      10.476      11.382      11.567      10.748      8.8529      6.0979      2.9797    
 0.17941     -1.6202     -1.9497     -.71567     -1.7830      1.1770      4.6549      7.8908      10.292      11.556    
  11.696      10.970      9.7716      8.4696      7.2260      6.1242      5.2116      4.5033      3.9931      3.6649    
  3.5029      3.4974      3.6487      3.9665      4.4671      5.1664      6.0708      7.1647      8.3997      9.6912    
  10.869      11.558      11.367      10.050      7.6121      4.3718     0.93169     -1.9497     -3.5704     -3.5113    
 -4.3371     -2.1524      1.1770      4.8712      8.1593      10.483      11.602      11.589      10.752      9.5078    
  8.2042      6.9798      5.9120      5.0413      4.3776      3.9110      3.6247      3.5034      3.5396      3.7360    
  4.1046      4.6624      5.4242      6.3916      7.5402      8.8105      10.105      11.185      11.635      11.078    
  9.3196      6.4458      2.8712     -.71567     -3.5113     -4.8316     -4.3370     -3.6422     -1.3750      1.9029    
  5.4320      8.4868      10.562      11.460      11.287      10.361      9.0976      7.8067      6.6095      5.5774    
  4.7452      4.1179      3.6834      3.4238      3.3244      3.3787      3.5906      3.9730      4.5436      5.3168    
  6.2929      7.4453      8.7116      9.9892      11.022      11.397      10.761      8.9519      6.0946      2.6296    
 -.75345     -3.2837     -3.6422     -4.3370     -3.2837     -.75345      2.6296      6.0946      8.9519      10.761    
  11.397      11.022      9.9892      8.7116      7.4453      6.2929      5.3168      4.5436      3.9730      3.5906    
  3.3787      3.3244      3.4238      3.6834      4.1179      4.7452      5.5774      6.6095      7.8067      9.0976    
  10.361      11.287      11.460      10.562      8.4868      5.4320      1.9029     -1.3750     -1.2948     -3.1977    
 -3.5113     -2.1615     0.49989      3.8164      7.0407      9.5487      10.983      11.294      10.699      9.5702    
  8.2952      7.0647      5.9672      5.0547      4.3454      3.8341      3.5047      3.3406      3.3309      3.4746    
  3.7804      4.2644      4.9438      5.8280      6.9064      8.1369      9.4412      10.677      11.500      11.513    
  10.437      8.2269      5.1395      1.7224      2.1104     -.52136     -1.9987     -1.9497     -.39840      2.2447    
  5.3243      8.1492      10.185      11.167      11.125      10.315      9.1179      7.8605      6.6768      5.6430    
  4.7996      4.1568      3.7052      3.4282      3.3105      3.3439      3.5299      3.8789      4.4078      5.1328    
  6.0600      7.1733      8.4248      9.7314      10.932      11.671      11.578      10.423      8.2157      5.2566    
  5.7719      3.0234     0.85979     -.17554     0.17941      1.8148      4.2890      6.9803      9.2814      10.763    
  11.260      10.868      9.8759      8.6471      7.4200      6.2935      5.3301      4.5591      3.9831      3.5901    
  3.3634      3.2898      3.3635      3.5882      3.9760      4.5436      5.3057      6.2649      7.4006      8.6601    
  9.9580      11.122      11.802      11.668      10.536      8.4607      8.9330      6.6248      4.3583      2.6978    
  2.0769      2.6513      4.2453      6.4157      8.6028      10.303      11.199      11.220      10.519      9.3979    
  8.1703      6.9864      5.9259      5.0375      4.3395      3.8290      3.4917      3.3122      3.2792      3.3894    
  3.6483      4.0688      4.6673      5.4564      6.4355      7.5798      8.8340      10.112      11.242      11.895    
  11.782      10.764      11.077      9.5721      7.7143      5.9662      4.7962      4.5254      5.2160      6.6510    
  8.4137      10.028      11.103      11.434      11.031      10.090      8.9053      7.7003      6.5718      5.5842    
  4.7727      4.1465      3.6981      3.4126      3.2760      3.2792      3.4210      3.7082      4.1543      4.7745    
  5.5794      6.5651      7.7040      8.9397      10.188      11.287      11.942      11.904      12.012      11.425    
  10.294      8.9125      7.6725      6.9400      6.9304      7.6324      8.8141      10.108      11.133      11.613    
  11.443      10.704      9.6104      8.4164      7.2507      6.1878      5.2773      4.5421      3.9843      3.5933    
  3.3546      3.2557      3.2898      3.4574      3.7663      4.2297      4.8615      5.6700      6.6486      7.7680    
  8.9721      10.182      11.254      11.933      11.853      12.072      11.749      11.002      10.082      9.3007    
  8.9244      9.0784      9.7013      10.570      11.379      11.850      11.811      11.243      10.274      9.1199    
  7.9466      6.8351      5.8451      5.0126      4.3507      3.8560      3.5165      3.3186      3.2515      3.3105    
  3.4974      3.8205      4.2921      4.9249      5.7245      6.6824      7.7686      8.9292      10.090      11.136    
  10.932      11.690      12.052      11.990      11.605      11.097      10.697      10.583      10.809      11.289    
  11.823      12.180      12.175      11.726      10.883      9.7986      8.6452      7.5127      6.4666      5.5531    
  4.7964      4.2024      3.7640      3.4690      3.3050      3.2633      3.3406      3.5397      3.8688      4.3394    
  4.9621      5.7406      6.6647      7.7051      8.8115      9.9169      9.6667      10.643      11.433      11.925    
  12.097      12.025      11.856      11.748      11.806      12.034      12.337      12.556      12.530      12.156    
  11.428      10.437      9.3314      8.2069      7.1310      6.1570      5.3193      4.6335      4.0999      3.7098    
  3.4513      3.3138      3.2903      3.3787      3.5825      3.9095      4.3697      4.9717      5.7173      6.5958    
  7.5795      8.6228      8.3699      9.3482      10.277      11.082      11.677      12.037      12.214      12.303    
  12.399      12.552      12.736      12.865      12.820      12.506      11.889      11.012      9.9856      8.9013    
  7.8255      6.8162      5.9160      5.1501      4.5274      4.0451      3.6941      3.4635      3.3445      3.3316    
  3.4238      3.6247      3.9412      4.3817      4.9529      5.6552      6.4779      7.3961      7.1622      8.0621    
  8.9726      9.8483      10.646      11.306      11.802      12.158      12.425      12.652      12.846      12.971    
  12.954      12.720      12.227      11.489      10.580      9.5732      8.5331      7.5192      6.5806      5.7515    
  5.0499      4.4806      4.0392      3.7172      3.5053      3.3962      3.3861      3.4746      3.6649      3.9629    
  4.3751      4.9065      5.5565      6.3156      6.1155      6.8868      7.7112      8.5530      9.3750      10.145    
  10.832      11.410      11.880      12.260      12.561      12.770      12.844      12.732      12.394      11.828    
  11.076      10.191      9.2290      8.2481      7.3024      6.4335      5.6688      5.0216      4.4943      4.0825    
  3.7788      3.5757      3.4679      3.4526      3.5298      3.7021      3.9739      4.3500      4.8340      5.4252    
  5.2665      5.8853      6.5807      7.3299      8.1042      8.8726      9.6080      10.291      10.905      11.437    
  11.881      12.225      12.442      12.493      12.346      11.988      11.435      10.717      9.8793      8.9765    
  8.0628      7.1857      6.3810      5.6711      5.0666      4.5689      4.1745      3.8778      3.6735      3.5581    
  3.5296      3.5882      3.7353      3.9739      4.3074      4.7384      4.6234      5.0867      5.6343      6.2554    
  6.9322      7.6414      8.3579      9.0589      9.7268      10.348      10.908      11.388      11.762      11.998    
  12.065      11.940      11.617      11.108      10.443      9.6680      8.8330      7.9880      7.1753      6.4261    
  5.7596      5.1847      4.7034      4.3138      4.0127      3.7971      3.6651      3.6156      3.6482      3.7635    
  3.9629      4.2488      4.1764      4.4933      4.8926      5.3717      5.9226      6.5315      7.1801      7.8482    
  8.5172      9.1711      9.7954      10.373      10.881      11.289      11.564      11.673      11.596      11.326    
  10.878      10.280      9.5743      8.8090      8.0294      7.2734      6.5689      5.9329      5.3741      4.8956    
  4.4980      4.1809      3.9440      3.7867      3.7084      3.7082      3.7857      3.9412      3.9095      4.0927    
  4.3529      4.6914      5.1068      5.5935      6.1410      6.7353      7.3609      8.0029      8.6474      9.2795    
  9.8798      10.422      10.873      11.198      11.363      11.347      11.144      10.766      10.240      9.6064    
  8.9081      8.1871      7.4782      6.8064      6.1876      5.6310      5.1418      4.7236      4.3793      4.1111    
  3.9200      3.8055      3.7663      3.8011      3.8090      3.8688      4.0009      4.2074      4.4900      4.8482    
  5.2782      5.7724      6.3209      6.9123      7.5354      8.1783      8.8258      9.4567      10.042      10.546    
  10.931      11.162      11.217      11.088      10.784      10.331      9.7650      9.1272      8.4561      7.7834    
  7.1319      6.5171      5.9493      5.4364      4.9857      4.6035      4.2947      4.0616      3.9040      3.8205    
  3.8688      3.8090      3.8205      3.9040      4.0616      4.2947      4.6035      4.9857      5.4364      5.9493    
  6.5171      7.1319      7.7834      8.4561      9.1272      9.7650      10.331      10.784      11.088      11.217    
  11.162      10.931      10.546      10.042      9.4567      8.8258      8.1783      7.5354      6.9123      6.3209    
  5.7724      5.2782      4.8482      4.4900      4.2074      4.0009      4.0927      3.9095      3.8011      3.7663    
  3.8055      3.9200      4.1111      4.3793      4.7236      5.1418      5.6310      6.1876      6.8064      7.4782    
  8.1871      8.9081      9.6064      10.240      10.766      11.144      11.347      11.363      11.198      10.873    
  10.422      9.8798      9.2795      8.6474      8.0029      7.3609      6.7353      6.1410      5.5935      5.1068    
  4.6914      4.3529      4.4933      4.1764      3.9412      3.7857      3.7082      3.7084      3.7867      3.9440    
  4.1809      4.4980      4.8956      5.3741      5.9329      6.5689      7.2734      8.0294      8.8090      9.5743    
  10.280      10.878      11.326      11.596      11.673      11.564      11.289      10.881      10.373      9.7954    
  9.1711      8.5172      7.8482      7.1801      6.5315      5.9226      5.3717      4.8926      5.0867      4.6234    
  4.2488      3.9629      3.7635      3.6482      3.6156      3.6651      3.7971      4.0127      4.3138      4.7034    
  5.1847      5.7596      6.4261      7.1753      7.9880      8.8330      9.6680      10.443      11.108      11.617    
  11.940      12.065      11.998      11.762      11.388      10.908      10.348      9.7268      9.0590      8.3579    
  7.6414      6.9322      6.2554      5.6343      5.8853      5.2665      4.7384      4.3074      3.9739      3.7353    
  3.5882      3.5297      3.5581      3.6735      3.8778      4.1745      4.5689      5.0666      5.6711      6.3810    
  7.1857      8.0628      8.9765      9.8793      10.717      11.435      11.988      12.346      12.493      12.442    
  12.225      11.881      11.437      10.905      10.291      9.6080      8.8726      8.1042      7.3299      6.5807    
  6.8868      6.1155      5.4252      4.8340      4.3500      3.9739      3.7022      3.5299      3.4526      3.4679    
  3.5757      3.7788      4.0825      4.4943      5.0216      5.6688      6.4335      7.3024      8.2481      9.2290    
  10.191      11.076      11.828      12.394      12.732      12.844      12.770      12.561      12.260      11.880    
  11.410      10.832      10.145      9.3750      8.5530      7.7112      8.0621      7.1622      6.3156      5.5565    
  4.9065      4.3751      3.9629      3.6650      3.4746      3.3861      3.3962      3.5053      3.7172      4.0392    
  4.4806      5.0499      5.7515      6.5806      7.5192      8.5331      9.5732      10.580      11.489      12.227    
  12.720      12.954      12.971      12.846      12.652      12.425      12.158      11.802      11.306      10.646    
  9.8483      8.9726      9.3482      8.3699      7.3961      6.4779      5.6552      4.9529      4.3817      3.9412    
  3.6247      3.4238      3.3316      3.3445      3.4635      3.6941      4.0451      4.5274      5.1501      5.9160    
  6.8162      7.8255      8.9013      9.9856      11.012      11.889      12.506      12.820      12.865      12.736    
  12.552      12.399      12.303      12.214      12.037      11.677      11.082      10.277      10.643      9.6667    
  8.6228      7.5795      6.5958      5.7173      4.9717      4.3697      3.9095      3.5825      3.3787      3.2903    
  3.3138      3.4513      3.7098      4.0999      4.6335      5.3193      6.1570      7.1310      8.2069      9.3314    
  10.437      11.428      12.156      12.530      12.556      12.337      12.034      11.806      11.748      11.856    
  12.025      12.097      11.925      11.433      11.690      10.932      9.9169      8.8115      7.7051      6.6647    
  5.7406      4.9621      4.3394      3.8688      3.5396      3.3406      3.2633      3.3050      3.4690      3.7640    
  4.2024      4.7964      5.5531      6.4666      7.5127      8.6452      9.7986      10.883      11.726      12.175    
  12.180      11.823      11.289      10.809      10.583      10.697      11.097      11.605      11.990      12.052    
  12.072      11.853      11.136      10.090      8.9292      7.7686      6.6824      5.7245      4.9249      4.2921    
  3.8205      3.4974      3.3105      3.2515      3.3185      3.5165      3.8560      4.3507      5.0126      5.8451    
  6.8351      7.9466      9.1199      10.274      11.243      11.811      11.850      11.379      10.570      9.7013    
  9.0784      8.9243      9.3007      10.082      11.002      11.749      11.425      12.012      11.933      11.254    
  10.182      8.9721      7.7680      6.6486      5.6700      4.8615      4.2296      3.7663      3.4574      3.2898    
  3.2557      3.3546      3.5933      3.9843      4.5421      5.2773      6.1878      7.2507      8.4164      9.6104    
  10.704      11.443      11.613      11.133      10.108      8.8141      7.6324      6.9304      6.9400      7.6725    
  8.9125      10.294      9.5721      11.077      11.904      11.942      11.287      10.188      8.9397      7.7040    
  6.5651      5.5794      4.7745      4.1543      3.7082      3.4209      3.2792      3.2760      3.4126      3.6981    
  4.1465      4.7727      5.5842      6.5718      7.7003      8.9053      10.090      11.031      11.434      11.103    
  10.028      8.4137      6.6510      5.2160      4.5254      4.7962      5.9662      7.7143      6.6248      8.9330    