   2   2   0   0
  0.2001288E+02  0.3839590E-09  0.3839590E-09  0.3839590E-09  0.5000000E-15
  1.000000000000000E-004
  CAR 
 unknown system                          
     17.57085192     -8.13176484  301      6.10853153      1.00000000
     -8.132  0.0000E+00  0.0000E+00
     -8.046  0.0000E+00  0.0000E+00
     -7.960  0.0000E+00  0.0000E+00
     -7.875  0.0000E+00  0.0000E+00
     -7.789  0.0000E+00  0.0000E+00
     -7.703  0.0000E+00  0.0000E+00
     -7.618  0.0000E+00  0.0000E+00
     -7.532  0.0000E+00  0.0000E+00
     -7.446  0.0000E+00  0.0000E+00
     -7.361  0.0000E+00  0.0000E+00
     -7.275  0.3894E-18  0.3337E-19
     -7.189  0.4472E-16  0.3865E-17
     -7.104  0.3761E-14  0.3261E-15
     -7.018  0.2227E-12  0.1940E-13
     -6.932  0.9282E-11  0.8146E-12
     -6.847  0.2740E-09  0.2429E-10
     -6.761  0.5778E-08  0.5193E-09
     -6.675  0.8791E-07  0.8051E-08
     -6.590  0.9767E-06  0.9173E-07
     -6.504  0.8013E-05  0.7782E-06
     -6.418  0.4894E-04  0.4971E-05
     -6.333  0.2234E-03  0.2411E-04
     -6.247  0.7639E-03  0.8956E-04
     -6.161  0.1971E-02  0.2584E-03
     -6.076  0.3934E-02  0.5955E-03
     -5.990  0.6400E-02  0.1144E-02
     -5.904  0.9109E-02  0.1924E-02
     -5.819  0.1182E-01  0.2937E-02
     -5.733  0.1385E-01  0.4123E-02
     -5.647  0.1487E-01  0.5397E-02
     -5.562  0.1605E-01  0.6773E-02
     -5.476  0.1849E-01  0.8357E-02
     -5.390  0.2119E-01  0.1017E-01
     -5.304  0.2244E-01  0.1210E-01
     -5.219  0.2211E-01  0.1399E-01
     -5.133  0.2154E-01  0.1584E-01
     -5.047  0.2270E-01  0.1778E-01
     -4.962  0.2645E-01  0.2005E-01
     -4.876  0.3057E-01  0.2267E-01
     -4.790  0.3206E-01  0.2541E-01
     -4.705  0.3087E-01  0.2806E-01
     -4.619  0.2886E-01  0.3053E-01
     -4.533  0.2784E-01  0.3292E-01
     -4.448  0.2999E-01  0.3548E-01
     -4.362  0.3607E-01  0.3857E-01
     -4.276  0.4276E-01  0.4224E-01
     -4.191  0.4556E-01  0.4614E-01
     -4.105  0.4360E-01  0.4988E-01
     -4.019  0.3992E-01  0.5330E-01
     -3.934  0.3874E-01  0.5662E-01
     -3.848  0.4333E-01  0.6033E-01
     -3.762  0.5327E-01  0.6489E-01
     -3.677  0.6234E-01  0.7023E-01
     -3.591  0.6348E-01  0.7567E-01
     -3.505  0.5704E-01  0.8056E-01
     -3.420  0.4894E-01  0.8475E-01
     -3.334  0.4361E-01  0.8849E-01
     -3.248  0.4345E-01  0.9221E-01
     -3.163  0.4808E-01  0.9633E-01
     -3.077  0.5165E-01  0.1008E+00
     -2.991  0.4815E-01  0.1049E+00
     -2.906  0.3951E-01  0.1083E+00
     -2.820  0.3297E-01  0.1111E+00
     -2.734  0.3253E-01  0.1139E+00
     -2.649  0.3618E-01  0.1170E+00
     -2.563  0.3825E-01  0.1203E+00
     -2.477  0.3453E-01  0.1232E+00
     -2.392  0.2664E-01  0.1255E+00
     -2.306  0.1976E-01  0.1272E+00
     -2.220  0.1690E-01  0.1286E+00
     -2.134  0.1694E-01  0.1301E+00
     -2.049  0.1691E-01  0.1315E+00
     -1.963  0.1523E-01  0.1328E+00
     -1.877  0.1267E-01  0.1339E+00
     -1.792  0.1088E-01  0.1349E+00
     -1.706  0.1035E-01  0.1357E+00
     -1.620  0.1072E-01  0.1367E+00
     -1.535  0.1265E-01  0.1377E+00
     -1.449  0.1794E-01  0.1393E+00
     -1.363  0.2741E-01  0.1416E+00
     -1.278  0.3865E-01  0.1449E+00
     -1.192  0.4760E-01  0.1490E+00
     -1.106  0.5398E-01  0.1536E+00
     -1.021  0.6183E-01  0.1589E+00
     -0.935  0.7143E-01  0.1651E+00
     -0.849  0.7683E-01  0.1716E+00
     -0.764  0.7469E-01  0.1780E+00
     -0.678  0.6822E-01  0.1839E+00
     -0.592  0.6024E-01  0.1890E+00
     -0.507  0.5070E-01  0.1934E+00
     -0.421  0.4215E-01  0.1970E+00
     -0.335  0.3922E-01  0.2004E+00
     -0.250  0.4069E-01  0.2039E+00
     -0.164  0.4019E-01  0.2073E+00
     -0.078  0.3576E-01  0.2104E+00
      0.007  0.3150E-01  0.2131E+00
      0.093  0.2997E-01  0.2156E+00
      0.179  0.2889E-01  0.2181E+00
      0.264  0.2643E-01  0.2204E+00
      0.350  0.2492E-01  0.2225E+00
      0.436  0.2628E-01  0.2248E+00
      0.521  0.2775E-01  0.2271E+00
      0.607  0.2587E-01  0.2293E+00
      0.693  0.2153E-01  0.2312E+00
      0.778  0.1856E-01  0.2328E+00
      0.864  0.1913E-01  0.2344E+00
      0.950  0.2152E-01  0.2363E+00
      1.036  0.2143E-01  0.2381E+00
      1.121  0.1691E-01  0.2395E+00
      1.207  0.1158E-01  0.2405E+00
      1.293  0.1170E-01  0.2415E+00
      1.378  0.2082E-01  0.2433E+00
      1.464  0.3669E-01  0.2465E+00
      1.550  0.5224E-01  0.2509E+00
      1.635  0.6122E-01  0.2562E+00
      1.721  0.6308E-01  0.2616E+00
      1.807  0.6259E-01  0.2670E+00
      1.892  0.6581E-01  0.2726E+00
      1.978  0.7384E-01  0.2789E+00
      2.064  0.7978E-01  0.2858E+00
      2.149  0.7672E-01  0.2923E+00
      2.235  0.6762E-01  0.2981E+00
      2.321  0.6134E-01  0.3034E+00
      2.406  0.6155E-01  0.3087E+00
      2.492  0.6619E-01  0.3143E+00
      2.578  0.7350E-01  0.3206E+00
      2.663  0.8168E-01  0.3276E+00
      2.749  0.8632E-01  0.3350E+00
      2.835  0.8497E-01  0.3423E+00
      2.920  0.8284E-01  0.3494E+00
      3.006  0.8810E-01  0.3569E+00
      3.092  0.1002E+00  0.3655E+00
      3.177  0.1078E+00  0.3748E+00
      3.263  0.1028E+00  0.3836E+00
      3.349  0.9136E-01  0.3914E+00
      3.434  0.8646E-01  0.3988E+00
      3.520  0.9006E-01  0.4065E+00
      3.606  0.9212E-01  0.4144E+00
      3.691  0.8677E-01  0.4218E+00
      3.777  0.8088E-01  0.4288E+00
      3.863  0.8355E-01  0.4359E+00
      3.948  0.9260E-01  0.4439E+00
      4.034  0.9738E-01  0.4522E+00
      4.120  0.9278E-01  0.4602E+00
      4.205  0.8429E-01  0.4674E+00
      4.291  0.7889E-01  0.4741E+00
      4.377  0.7563E-01  0.4806E+00
      4.463  0.6977E-01  0.4866E+00
      4.548  0.6293E-01  0.4920E+00
      4.634  0.6044E-01  0.4972E+00
      4.720  0.6097E-01  0.5024E+00
      4.805  0.5835E-01  0.5074E+00
      4.891  0.5183E-01  0.5118E+00
      4.977  0.4568E-01  0.5157E+00
      5.062  0.4082E-01  0.5192E+00
      5.148  0.3481E-01  0.5222E+00
      5.234  0.2783E-01  0.5246E+00
      5.319  0.2234E-01  0.5265E+00
      5.405  0.1867E-01  0.5281E+00
      5.491  0.1542E-01  0.5294E+00
      5.576  0.1265E-01  0.5305E+00
      5.662  0.1091E-01  0.5315E+00
      5.748  0.9240E-02  0.5322E+00
      5.833  0.6637E-02  0.5328E+00
      5.919  0.3727E-02  0.5331E+00
      6.005  0.1620E-02  0.5333E+00
      6.090  0.6116E-03  0.5333E+00
      6.176  0.4672E-03  0.5334E+00
      6.262  0.1090E-02  0.5335E+00
      6.347  0.2609E-02  0.5337E+00
      6.433  0.5100E-02  0.5341E+00
      6.519  0.8471E-02  0.5348E+00
      6.604  0.1241E-01  0.5359E+00
      6.690  0.1617E-01  0.5373E+00
      6.776  0.1888E-01  0.5389E+00
      6.861  0.2036E-01  0.5407E+00
      6.947  0.2158E-01  0.5425E+00
      7.033  0.2448E-01  0.5446E+00
      7.118  0.3027E-01  0.5472E+00
      7.204  0.3734E-01  0.5504E+00
      7.290  0.4360E-01  0.5541E+00
      7.375  0.5018E-01  0.5584E+00
      7.461  0.5850E-01  0.5634E+00
      7.547  0.6556E-01  0.5691E+00
      7.633  0.6750E-01  0.5748E+00
      7.718  0.6587E-01  0.5805E+00
      7.804  0.6607E-01  0.5861E+00
      7.890  0.7189E-01  0.5923E+00
      7.975  0.8316E-01  0.5994E+00
      8.061  0.9504E-01  0.6076E+00
      8.147  0.9993E-01  0.6161E+00
      8.232  0.9483E-01  0.6243E+00
      8.318  0.8585E-01  0.6316E+00
      8.404  0.8192E-01  0.6386E+00
      8.489  0.8485E-01  0.6459E+00
      8.575  0.8829E-01  0.6535E+00
      8.661  0.8657E-01  0.6609E+00
      8.746  0.8135E-01  0.6679E+00
      8.832  0.7895E-01  0.6746E+00
      8.918  0.8484E-01  0.6819E+00
      9.003  0.1006E+00  0.6905E+00
      9.089  0.1212E+00  0.7009E+00
      9.175  0.1353E+00  0.7125E+00
      9.260  0.1349E+00  0.7240E+00
      9.346  0.1256E+00  0.7348E+00
      9.432  0.1191E+00  0.7450E+00
      9.517  0.1172E+00  0.7550E+00
      9.603  0.1122E+00  0.7647E+00
      9.689  0.9864E-01  0.7731E+00
      9.774  0.8083E-01  0.7800E+00
      9.860  0.6816E-01  0.7859E+00
      9.946  0.6519E-01  0.7915E+00
     10.031  0.6921E-01  0.7974E+00
     10.117  0.7436E-01  0.8038E+00
     10.203  0.7586E-01  0.8103E+00
     10.288  0.7545E-01  0.8167E+00
     10.374  0.8205E-01  0.8238E+00
     10.460  0.9988E-01  0.8323E+00
     10.545  0.1182E+00  0.8424E+00
     10.631  0.1221E+00  0.8529E+00
     10.717  0.1114E+00  0.8624E+00
     10.802  0.9807E-01  0.8708E+00
     10.888  0.8890E-01  0.8785E+00
     10.974  0.8081E-01  0.8854E+00
     11.060  0.7053E-01  0.8914E+00
     11.145  0.5991E-01  0.8966E+00
     11.231  0.5227E-01  0.9010E+00
     11.317  0.4979E-01  0.9053E+00
     11.402  0.5412E-01  0.9099E+00
     11.488  0.6440E-01  0.9155E+00
     11.574  0.7444E-01  0.9218E+00
     11.659  0.7621E-01  0.9284E+00
     11.745  0.6930E-01  0.9343E+00
     11.831  0.6298E-01  0.9397E+00
     11.916  0.6504E-01  0.9453E+00
     12.002  0.7361E-01  0.9516E+00
     12.088  0.8240E-01  0.9586E+00
     12.173  0.8724E-01  0.9661E+00
     12.259  0.8500E-01  0.9734E+00
     12.345  0.7440E-01  0.9798E+00
     12.430  0.6091E-01  0.9850E+00
     12.516  0.5273E-01  0.9895E+00
     12.602  0.5045E-01  0.9938E+00
     12.687  0.4809E-01  0.9979E+00
     12.773  0.4264E-01  0.1002E+01
     12.859  0.3687E-01  0.1005E+01
     12.944  0.3532E-01  0.1008E+01
     13.030  0.3945E-01  0.1011E+01
     13.116  0.4479E-01  0.1015E+01
     13.201  0.4485E-01  0.1019E+01
     13.287  0.3875E-01  0.1022E+01
     13.373  0.3275E-01  0.1025E+01
     13.458  0.3417E-01  0.1028E+01
     13.544  0.4342E-01  0.1032E+01
     13.630  0.5274E-01  0.1036E+01
     13.715  0.5493E-01  0.1041E+01
     13.801  0.5133E-01  0.1045E+01
     13.887  0.4795E-01  0.1049E+01
     13.972  0.4555E-01  0.1053E+01
     14.058  0.3911E-01  0.1057E+01
     14.144  0.2685E-01  0.1059E+01
     14.230  0.1377E-01  0.1060E+01
     14.315  0.5117E-02  0.1061E+01
     14.401  0.1357E-02  0.1061E+01
     14.487  0.2550E-03  0.1061E+01
     14.572  0.3386E-04  0.1061E+01
     14.658  0.4569E-05  0.1061E+01
     14.744  0.1435E-04  0.1061E+01
     14.829  0.9864E-04  0.1061E+01
     14.915  0.4864E-03  0.1061E+01
     15.001  0.1709E-02  0.1061E+01
     15.086  0.4328E-02  0.1061E+01
     15.172  0.8031E-02  0.1062E+01
     15.258  0.1119E-01  0.1063E+01
     15.343  0.1212E-01  0.1064E+01
     15.429  0.1075E-01  0.1065E+01
     15.515  0.8359E-02  0.1066E+01
     15.600  0.5999E-02  0.1066E+01
     15.686  0.3871E-02  0.1066E+01
     15.772  0.2059E-02  0.1067E+01
     15.857  0.8347E-03  0.1067E+01
     15.943  0.2462E-03  0.1067E+01
     16.029  0.5168E-04  0.1067E+01
     16.114  0.7644E-05  0.1067E+01
     16.200  0.7928E-06  0.1067E+01
     16.286  0.5753E-07  0.1067E+01
     16.371  0.2917E-08  0.1067E+01
     16.457  0.1032E-09  0.1067E+01
     16.543  0.2546E-11  0.1067E+01
     16.628  0.4378E-13  0.1067E+01
     16.714  0.5250E-15  0.1067E+01
     16.800  0.4673E-17  0.1067E+01
     16.885  0.0000E+00  0.1067E+01
     16.971  0.0000E+00  0.1067E+01
     17.057  0.0000E+00  0.1067E+01
     17.142  0.0000E+00  0.1067E+01
     17.228  0.0000E+00  0.1067E+01
     17.314  0.0000E+00  0.1067E+01
     17.400  0.0000E+00  0.1067E+01
     17.485  0.0000E+00  0.1067E+01
     17.571  0.0000E+00  0.1067E+01
