       N       E                     dE             d eps       ncg     rms          rms(c)
DAV:   1     0.336340205355E+01    0.33634E+01   -0.25391E+03   896   0.517E+02
DAV:   2    -0.108504305727E+02   -0.14214E+02   -0.13690E+02  1400   0.698E+01
DAV:   3    -0.110173207799E+02   -0.16689E+00   -0.16689E+00  1144   0.974E+00
DAV:   4    -0.110179578867E+02   -0.63711E-03   -0.63711E-03  1472   0.623E-01
DAV:   5    -0.110179584029E+02   -0.51618E-06   -0.51583E-06  1120   0.136E-02    0.301E+00
DAV:   6    -0.108934576859E+02    0.12450E+00   -0.82315E-02  1048   0.149E+00    0.178E+00
DAV:   7    -0.108365947525E+02    0.56863E-01   -0.15128E-01  1136   0.215E+00    0.154E-01
DAV:   8    -0.108379031485E+02   -0.13084E-02   -0.41075E-03   992   0.476E-01    0.252E-02
DAV:   9    -0.108379955696E+02   -0.92421E-04   -0.98609E-05   720   0.802E-02
   1 F= -.10837996E+02 E0= -.10837935E+02  d E =-.108380E+02
