unknown system                          
   1.00000000000000     
    -2.450000    2.450000    1.274000
     2.450000   -2.450000    1.274000
     2.450000    2.450000   -1.274000
   Si
     2
Direct
  0.250000  0.750000  0.500000
  0.000000  0.000000  0.000000
 
   28   28   28
 -5.4691     -3.9343     0.55502E-01  4.9745      9.1362      11.432      11.683      10.496      8.8061      7.1949    
  5.8371      4.7992      4.0840      3.6691      3.5333      3.6690      4.0841      4.7993      5.8372      7.1948    
  8.8061      10.496      11.683      11.432      9.1362      4.9746     0.55422E-01 -3.9345     -3.9345     -4.7270    
 -2.5765      1.6515      6.3576      9.9818      11.657      11.428      10.022      8.3320      6.7836      5.5129    
  4.5661      3.9358      3.5975      3.5331      3.7389      4.2259      5.0168      6.1306      7.5534      9.2007    
  10.853      11.817      11.192      8.5244      4.2008     -.51381     0.55422E-01 -2.5767     -2.6387     -.11462    
  3.9671      8.0633      10.851      11.751      11.023      9.4550      7.8030      6.3419      5.1753      4.3293    
  3.7882      3.5276      3.5329      3.8038      4.3543      5.2073      6.3774      7.8401      9.4961      11.087    
  11.872      11.041      8.3014      4.2008      4.9746      1.6515     -.11467     0.41544      3.0056      6.5750    
  9.7558      11.535      11.632      10.471      8.8321      7.2481      5.8939      4.8420      4.1006      3.6485    
  3.4629      3.5328      3.8607      4.4625      5.3605      6.5642      8.0398      9.6788      11.201      11.886    
  11.041      8.5244      9.1362      6.3576      3.9671      3.0056      3.9036      6.2527      9.0309      11.133    
  11.883      11.268      9.8144      8.1888      6.6982      5.4639      4.5302      3.8914      3.5236      3.4068    
  3.5329      3.9067      4.5448      5.4679      6.6806      8.1423      9.7406      11.201      11.872      11.192    
  11.432      9.9818      8.0633      6.5751      6.2527      7.2670      9.1314      10.974      11.995      11.840    
  10.700      9.1245      7.5614      6.1831      5.0739      4.2550      3.7115      3.4197      3.3623      3.5333    
  3.9390      4.5962      5.5233      6.7202      8.1423      9.6788      11.087      11.817      11.683      11.656    
  10.851      9.7557      9.0309      9.1315      10.042      11.287      12.199      12.283      11.452      10.023    
  8.4560      6.9852      5.7293      4.7423      4.0289      3.5695      3.3419      3.3314      3.5337      3.9558    
  4.6138      5.5233      6.6806      8.0398      9.4961      10.853      10.496      11.428      11.751      11.535    
  11.133      10.974      11.287      11.951      12.563      12.682      12.076      10.849      9.3504      7.8498    
  6.4905      5.3578      4.4831      3.8612      3.4715      3.2939      3.3157      3.5339      3.9558      4.5962    
  5.4679      6.5642      7.8401      9.2007      8.8061      10.022      11.023      11.632      11.883      11.995    
  12.199      12.563      12.931      13.009      12.560      11.555      10.201      8.7451      7.3416      6.1010    
  5.0835      4.3058      3.7583      3.4215      3.2776      3.3157      3.5337      3.9390      4.5448      5.3605    
  6.3774      7.5534      7.1948      8.3319      9.4551      10.471      11.268      11.840      12.283      12.682    
  13.009      13.118      12.833      12.077      10.946      9.6215      8.2509      6.9595      5.8333      4.9156    
  4.2158      3.7236      3.4215      3.2939      3.3314      3.5333      3.9067      4.4625      5.2073      6.1306    
  5.8372      6.7835      7.8029      8.8321      9.8145      10.700      11.452      12.076      12.560      12.833    
  12.783      12.331      11.505      10.409      9.1655      7.9019      6.7228      5.6972      4.8592      4.2158    
  3.7583      3.4715      3.3419      3.3623      3.5329      3.8607      4.3543      5.0168      4.7993      5.5130    
  6.3418      7.2480      8.1887      9.1246      10.023      10.849      11.555      12.077      12.331      12.244    
  11.796      11.024      10.012      8.8745      7.7216      6.6427      5.6972      4.9156      4.3058      3.8612    
  3.5695      3.4197      3.4068      3.5328      3.8038      4.2259      4.0841      4.5662      5.1754      5.8939    
  6.6981      7.5614      8.4560      9.3504      10.201      10.946      11.505      11.796      11.761      11.385    
  10.705      9.8017      8.7746      7.7216      6.7228      5.8333      5.0835      4.4831      4.0289      3.7115    
  3.5236      3.4629      3.5329      3.7389      3.6690      3.9357      4.3294      4.8421      5.4639      6.1831    
  6.9851      7.8498      8.7451      9.6215      10.409      11.024      11.385      11.436      11.162      10.594    
  9.8017      8.8745      7.9019      6.9595      6.1010      5.3578      4.7423      4.2550      3.8914      3.6485    
  3.5276      3.5331      3.5333      3.5974      3.7881      4.1006      4.5302      5.0739      5.7293      6.4904    
  7.3416      8.2509      9.1655      10.012      10.705      11.162      11.321      11.162      10.705      10.012    
  9.1655      8.2509      7.3416      6.4905      5.7293      5.0739      4.5302      4.1006      3.7882      3.5975    
  3.6691      3.5331      3.5275      3.6483      3.8913      4.2550      4.7424      5.3578      6.1010      6.9594    
  7.9019      8.8745      9.8018      10.594      11.162      11.436      11.385      11.024      10.409      9.6215    
  8.7451      7.8498      6.9852      6.1831      5.4639      4.8420      4.3293      3.9358      4.0840      3.7389    
  3.5329      3.4628      3.5235      3.7115      4.0289      4.4832      5.0835      5.8333      6.7228      7.7216    
  8.7746      9.8018      10.705      11.385      11.761      11.796      11.505      10.946      10.201      9.3504    
  8.4560      7.5614      6.6982      5.8939      5.1753      4.5661      4.7992      4.2258      3.8038      3.5328    
  3.4068      3.4197      3.5695      3.8612      4.3058      4.9157      5.6972      6.6427      7.7216      8.8745    
  10.012      11.024      11.796      12.244      12.331      12.077      11.555      10.849      10.023      9.1245    
  8.1888      7.2481      6.3419      5.5129      5.8371      5.0166      4.3542      3.8607      3.5329      3.3623    
  3.3420      3.4715      3.7582      4.2158      4.8592      5.6972      6.7228      7.9019      9.1655      10.409    
  11.505      12.331      12.783      12.833      12.560      12.076      11.452      10.700      9.8144      8.8321    
  7.8030      6.7836      7.1949      6.1306      5.2072      4.4624      3.9066      3.5333      3.3315      3.2940    
  3.4215      3.7236      4.2158      4.9157      5.8333      6.9594      8.2509      9.6215      10.946      12.077    
  12.833      13.118      13.009      12.682      12.283      11.840      11.268      10.471      9.4550      8.3320    
  8.8061      7.5534      6.3775      5.3605      4.5448      3.9390      3.5338      3.3158      3.2777      3.4215    
  3.7582      4.3058      5.0835      6.1010      7.3416      8.7451      10.201      11.555      12.560      13.009    
  12.931      12.563      12.199      11.995      11.883      11.632      11.023      10.022      10.496      9.2006    
  7.8401      6.5643      5.4681      4.5963      3.9558      3.5339      3.3158      3.2940      3.4715      3.8612    
  4.4832      5.3578      6.4904      7.8498      9.3504      10.849      12.076      12.682      12.563      11.951    
  11.287      10.974      11.133      11.535      11.751      11.428      11.683      10.853      9.4961      8.0398    
  6.6808      5.5235      4.6138      3.9558      3.5338      3.3315      3.3420      3.5695      4.0289      4.7424    
  5.7293      6.9851      8.4560      10.023      11.452      12.283      12.199      11.287      10.042      9.1314    
  9.0309      9.7558      10.851      11.657      11.432      11.817      11.087      9.6787      8.1423      6.7203    
  5.5235      4.5963      3.9390      3.5333      3.3623      3.4197      3.7115      4.2550      5.0739      6.1831    
  7.5614      9.1246      10.700      11.840      11.995      10.974      9.1315      7.2670      6.2527      6.5750    
  8.0633      9.9818      9.1362      11.193      11.872      11.201      9.7405      8.1423      6.6808      5.4681    
  4.5448      3.9066      3.5329      3.4068      3.5235      3.8913      4.5302      5.4639      6.6981      8.1887    
  9.8145      11.268      11.883      11.133      9.0309      6.2527      3.9036      3.0056      3.9671      6.3576    
  4.9745      8.5242      11.041      11.886      11.201      9.6787      8.0398      6.5643      5.3605      4.4624    
  3.8607      3.5328      3.4628      3.6483      4.1006      4.8421      5.8939      7.2480      8.8321      10.471    
  11.632      11.535      9.7557      6.5751      3.0056     0.41544     -.11462      1.6515     0.55502E-01  4.2006    
  8.3012      11.041      11.872      11.087      9.4961      7.8401      6.3775      5.2072      4.3542      3.8038    
  3.5329      3.5275      3.7881      4.3294      5.1754      6.3418      7.8029      9.4551      11.023      11.751    
  10.851      8.0633      3.9671     -.11467     -2.6387     -2.5765     -3.9343     -.51372      4.2006      8.5242    
  11.193      11.817      10.853      9.2006      7.5534      6.1306      5.0166      4.2258      3.7389      3.5331    
  3.5974      3.9357      4.5662      5.5130      6.7835      8.3319      10.022      11.428      11.656      9.9818    
  6.3576      1.6515     -2.5767     -4.7270     -3.9340     -2.8224     0.65323      5.1413      9.0524      11.273    
  11.548      10.402      8.7226      7.1034      5.7275      4.6670      3.9274      3.4850      3.3154      3.4081    
  3.7691      4.4200      5.3869      6.6747      8.2309      9.9087      11.245      11.362      9.6076      6.0354    
  1.5762     -2.2374     -2.8226     -3.9340     -2.2373      1.5762      6.0353      9.6077      11.362      11.245    
  9.9087      8.2310      6.6749      5.3869      4.4200      3.7691      3.4081      3.3154      3.4849      3.9274    
  4.6670      5.7274      7.1032      8.7226      10.402      11.548      11.273      9.0524      5.1414     0.65315    
 0.77319     -2.1057     -2.5763     -.46437      3.3530      7.3996      10.312      11.408      10.839      9.3397    
  7.6980      6.2282      5.0453      4.1825      3.6255      3.3476      3.3312      3.5750      4.0934      4.9118    
  6.0501      7.4917      9.1490      10.801      11.774      11.237      8.8124      4.9222      5.4373      1.9184    
 -.22084     -.11446      2.1615      5.6343      8.9383      10.967      11.316      10.316      8.7271      7.1495    
  5.7854      4.7192      3.9652      3.5025      3.3059      3.3622      3.6743      4.2592      5.1422      6.3378    
  7.8197      9.4887      11.096      11.952      11.322      8.9721      9.5100      6.5855      3.8686      2.4829    
  3.0057      5.1663      7.9976      10.341      11.397      11.030      9.6995      8.1021      6.6126      5.3681    
  4.4235      3.7773      3.4050      3.2846      3.4070      3.7781      4.4163      5.3454      6.5745      8.0691    
  9.7234      11.282      12.093      11.540      11.841      10.304      8.1316      6.2564      5.5257      6.2526    
  8.0498      10.048      11.359      11.496      10.550      9.0427      7.4950      6.1135      4.9957      4.1709    
  3.6264      3.3372      3.2846      3.4632      3.8808      4.5559      5.5098      6.7462      8.2249      9.8383    
  11.347      12.181      12.178      12.132      11.166      9.7665      8.6566      8.4103      9.1313      10.398    
  11.508      11.862      11.257      9.9404      8.4020      6.9366      5.6762      4.6847      3.9720      3.5189    
  3.3019      3.3060      3.5280      3.9766      4.6697      5.6252      6.8420      8.2765      9.8237      11.279    
  11.064      12.038      12.301      11.891      11.184      10.686      10.732      11.287      11.965      12.266    
  11.860      10.763      9.3038      7.8147      6.4552      5.3202      4.4477      3.8344      3.4591      3.3009    
  3.3477      3.5979      4.0602      4.7509      5.6844      6.8553      8.2188      9.6764      9.4006      10.699    
  11.723      12.254      12.314      12.154      12.083      12.255      12.563      12.705      12.380      11.479    
  10.163      8.7171      7.3151      6.0742      5.0604      4.2934      3.7634      3.4498      3.3347      3.4081    
  3.6694      4.1268      4.7947      5.6834      6.7843      8.0530      7.7870      9.0095      10.198      11.227    
  11.946      12.348      12.569      12.757      12.945      13.009      12.751      12.040      10.923      9.5970    
  8.2240      6.9321      5.8110      4.9064      4.2272      3.7619      3.4922      3.4026      3.4849      3.7391    
  4.1731      4.7987      5.6222      6.6323      6.4077      7.4354      8.5246      9.5975      10.581      11.396    
  12.009      12.458      12.781      12.941      12.833      12.356      11.504      10.386      9.1301      7.8617    
  6.6875      5.6771      4.8635      4.2517      3.8309      3.5855      3.5024      3.5748      3.8038      4.1968    
  4.7627      5.5042      5.3358      6.1230      7.0186      7.9747      8.9359      9.8520      10.685      11.398    
  11.965      12.353      12.500      12.331      11.818      11.000      9.9600      8.8090      7.6579      6.5954    
  5.6784      4.9340      4.3670      3.9690      3.7271      3.6303      3.6739      3.8605      4.1967      4.6888    
  4.5811      5.1264      5.7948      6.5615      7.3935      8.2549      9.1111      9.9300      10.676      11.299    
  11.737      11.920      11.796      11.353      10.627      9.6984      8.6670      7.6295      6.6625      5.8164    
  5.1169      4.5707      4.1724      3.9118      3.7808      3.7776      3.9063      4.1730      4.1266      4.4451    
  4.8877      5.4420      6.0912      6.8162      7.5959      8.4066      9.2185      9.9893      10.661      11.161    
  11.419      11.385      11.047      10.441      9.6364      8.7215      7.7824      6.8887      6.0884      5.4081    
  4.8573      4.4339      4.1317      3.9466      3.8804      3.9386      3.9553      4.0599      4.2882      4.6329    
  5.0847      5.6349      6.2754      6.9963      7.7805      8.5992      9.4065      10.139      10.721      11.080    
  11.162      10.951      10.472      9.7867      8.9733      8.1112      7.2665      6.4864      5.7991      5.2170    
  4.7429      4.3763      4.1190      3.9763      4.0600      3.9553      3.9762      4.1189      4.3762      4.7428    
  5.2169      5.7990      6.4864      7.2664      8.1111      8.9733      9.7868      10.472      10.951      11.162    
  11.080      10.721      10.139      9.4066      8.5992      7.7806      6.9963      6.2755      5.6350      5.0848    
  4.6329      4.2883      4.4452      4.1268      3.9386      3.8803      3.9466      4.1316      4.4339      4.8573    
  5.4081      6.0884      6.8887      7.7823      8.7215      9.6364      10.441      11.047      11.385      11.419    
  11.161      10.661      9.9893      9.2186      8.4067      7.5960      6.8163      6.0913      5.4419      4.8877    
  5.1263      4.5811      4.1731      3.9064      3.7777      3.7808      3.9118      4.1723      4.5707      5.1169    
  5.8164      6.6625      7.6295      8.6670      9.6984      10.627      11.353      11.796      11.920      11.737    
  11.299      10.676      9.9301      9.1112      8.2550      7.3937      6.5615      5.7947      6.1229      5.3356    
  4.6888      4.1968      3.8606      3.6740      3.6304      3.7271      3.9690      4.3670      4.9340      5.6784    
  6.5954      7.6579      8.8090      9.9600      11.000      11.818      12.331      12.500      12.353      11.965    
  11.398      10.685      9.8520      8.9360      7.9748      7.0187      7.4355      6.4076      5.5040      4.7626    
  4.1968      3.8038      3.5749      3.5025      3.5855      3.8309      4.2517      4.8636      5.6771      6.6875    
  7.8618      9.1301      10.386      11.504      12.356      12.833      12.941      12.781      12.458      12.009    
  11.396      10.581      9.5975      8.5246      9.0095      7.7870      6.6322      5.6222      4.7986      4.1731    
  3.7391      3.4850      3.4027      3.4922      3.7619      4.2273      4.9064      5.8111      6.9321      8.2241    
  9.5971      10.923      12.040      12.751      13.009      12.945      12.757      12.569      12.348      11.946    
  11.227      10.198      10.699      9.4005      8.0529      6.7842      5.6834      4.7947      4.1268      3.6694    
  3.4082      3.3348      3.4497      3.7633      4.2935      5.0605      6.0742      7.3151      8.7172      10.163    
  11.479      12.380      12.705      12.563      12.255      12.083      12.154      12.314      12.254      11.723    
  12.038      11.064      9.6762      8.2186      6.8553      5.6844      4.7509      4.0601      3.5978      3.3477    
  3.3009      3.4590      3.8344      4.4478      5.3203      6.4552      7.8148      9.3040      10.763      11.860    
  12.266      11.965      11.287      10.732      10.686      11.184      11.891      12.301      12.132      12.178    
  11.279      9.8236      8.2763      6.8421      5.6253      4.6697      3.9765      3.5280      3.3060      3.3018    
  3.5188      3.9721      4.6849      5.6762      6.9366      8.4020      9.9405      11.257      11.862      11.508    
  10.398      9.1312      8.4102      8.6565      9.7665      11.166      10.304      11.841      12.181      11.347    
  9.8381      8.2248      6.7463      5.5099      4.5559      3.8807      3.4632      3.2846      3.3371      3.6264    
  4.1711      4.9959      6.1135      7.4950      9.0428      10.550      11.496      11.358      10.048      8.0499    
  6.2526      5.5257      6.2563      8.1316      6.5854      9.5098      11.540      12.093      11.282      9.7233    
  8.0691      6.5746      5.3455      4.4163      3.7780      3.4070      3.2846      3.4050      3.7773      4.4236    
  5.3682      6.6125      8.1021      9.6996      11.030      11.397      10.341      7.9976      5.1664      3.0057    
  2.4829      3.8686      1.9185      5.4372      8.9719      11.322      11.953      11.096      9.4887      7.8198    
  6.3379      5.1422      4.2592      3.6743      3.3623      3.3059      3.5024      3.9653      4.7194      5.7854    
  7.1494      8.7272      10.316      11.316      10.967      8.9382      5.6344      2.1615     -.11438     -.22068    
 -2.1055     0.77329      4.9221      8.8123      11.237      11.774      10.801      9.1490      7.4918      6.0502    
  4.9118      4.0933      3.5750      3.3313      3.3476      3.6255      4.1826      5.0454      6.2281      7.6979    
  9.3397      10.839      11.408      10.312      7.3996      3.3530     -.46438     -2.5762     0.56409E-01 0.77388    
  3.4472      6.9915      10.069      11.715      11.692      10.454      8.7798      7.1739      5.8016      4.7327    
  3.9740      3.5028      3.2939      3.3348      3.6287      4.1942      5.0578      6.2319      7.6813      9.2912    
  10.769      11.398      10.527      8.0627      4.6674      1.5767     0.65376     -.51270     0.65386      3.6611    
  7.2895      10.204      11.555      11.266      9.9004      8.2448      6.7058      5.4236      4.4517      3.7867    
  3.4029      3.2776      3.4028      3.7867      4.4517      5.4235      6.7057      8.2447      9.9005      11.266    
  11.555      10.204      7.2896      3.6611      3.4472     0.77380     0.56455E-01  1.5768      4.6674      8.0626    
  10.527      11.398      10.769      9.2911      7.6813      6.2320      5.0578      4.1942      3.6288      3.3349    
  3.2938      3.5026      3.9740      4.7327      5.8015      7.1737      8.7798      10.454      11.692      11.715    
  10.069      6.9916      7.2653      4.0848      1.9189      1.6522      3.3533      6.2428      9.1060      10.895    
  11.172      10.197      8.6559      7.1157      5.7747      4.7204      3.9706      3.5058      3.3009      3.3419    
  3.6306      4.1830      5.0244      6.1731      7.6124      9.2595      10.926      12.057      11.931      10.215    
  10.648      8.0728      5.4543      3.8689      3.9674      5.6344      8.0575      10.164      11.151      10.822    
  9.5623      8.0221      6.5727      5.3537      4.4251      3.7889      3.4218      3.3018      3.4197      3.7811    
  4.4039      5.3120      6.5184      7.9974      9.6570      11.297      12.363      12.219      12.545      11.287    
  9.2509      7.2876      6.2564      6.5750      7.9974      9.7594      10.997      11.183      10.332      8.9052    
  7.4159      6.0756      4.9863      4.1827      3.6550      3.3792      3.3370      3.5236      3.9468      4.6249    
  5.5793      6.8171      8.3052      9.9468      11.544      12.589      12.699      12.833      11.985      10.555    
  9.2362      8.6563      9.0305      10.048      11.060      11.449      10.948      9.7355      8.2717      6.8633    
  5.6452      4.6866      4.0016      3.5733      3.3791      3.4048      3.6485      4.1189      4.8335      5.8102    
  7.0502      8.5151      10.107      11.645      11.580      12.649      12.989      12.570      11.720      10.955    
  10.685      10.973      11.508      11.800      11.476      10.488      9.1136      7.6928      6.3887      5.2989    
  4.4654      3.8879      3.5466      3.4216      3.5023      3.7882      4.2881      5.0175      5.9902      7.2022    
  8.6114      10.123      9.9874      11.337      12.403      12.929      12.892      12.529      12.183      12.083    
  12.198      12.266      11.970      11.150      9.9139      8.5368      7.1981      6.0133      5.0500      4.3302    
  3.8454      3.5761      3.5055      3.6253      3.9358      4.4450      5.1658      6.1077      7.2621      8.5851    
  8.4354      9.7054      10.924      11.951      12.607      12.863      12.860      12.792      12.757      12.681    
  12.380      11.695      10.628      9.3565      8.0448      6.8145      5.7538      4.9078      4.2859      3.8764    
  3.6619      3.6283      3.7689      4.0841      4.5810      5.2697      6.1553      7.2251      7.0927      8.1702    
  9.2927      10.372      11.318      12.034      12.478      12.708      12.805      12.780      12.560      12.040    
  11.187      10.093      8.8830      7.6728      6.5636      5.6219      4.8779      4.3348      3.9813      3.8024    
  3.7862      3.9270      4.2258      4.6888      5.3232      6.1298      6.0326      6.8725      7.8056      8.7757    
  9.7167      10.566      11.279      11.817      12.179      12.368      12.353      12.077      11.504      10.669    
  9.6469      8.5390      7.4494      6.4607      5.6244      4.9626      4.4770      4.1584      3.9939      3.9736    
  4.0930      4.3541      4.7628      5.3234      5.2701      5.8693      6.5779      7.3648      8.1886      9.0037    
  9.7683      10.449      11.020      11.452      11.706      11.737      11.505      11.000      10.255      9.3438    
  8.3601      7.3941      6.5145      5.7639      5.1615      4.7103      4.4033      4.2301      4.1827      4.2589    
  4.4624      4.7989      4.7950      5.1664      5.6496      6.2273      6.8763      7.5697      8.2796      8.9786    
  9.6401      10.233      10.719      11.046      11.161      11.024      10.627      10.005      9.2243      8.3691    
  7.5169      6.7275      6.0391      5.4712      5.0290      4.7083      4.5015      4.4037      4.4161      4.5447    
  4.5963      4.7512      5.0181      5.3866      5.8423      6.3706      6.9574      7.5882      8.2454      8.9053    
  9.5341      10.085      10.500      10.721      10.705      10.441      9.9566      9.3102      8.5743      7.8179    
  7.0956      6.4440      5.8838      5.4231      5.0613      4.7953      4.6250      4.5559      4.6699      4.6138    
  4.6699      4.8340      5.0961      5.4461      5.8774      6.3861      6.9669      7.6080      8.2875      8.9695    
  9.6032      10.126      10.472      10.594      10.472      10.125      9.6032      8.9695      8.2875      7.6080    
  6.9669      6.3861      5.8774      5.4460      5.0960      4.8339      5.0181      4.7513      4.5963      4.5560    
  4.6251      4.7954      5.0613      5.4231      5.8839      6.4440      7.0956      7.8179      8.5743      9.3102    
  9.9566      10.441      10.705      10.721      10.500      10.085      9.5341      8.9053      8.2454      7.5882    
  6.9574      6.3706      5.8423      5.3865      5.6496      5.1664      4.7951      4.5448      4.4162      4.4038    
  4.5016      4.7082      5.0289      5.4712      6.0391      6.7275      7.5168      8.3691      9.2243      10.005    
  10.627      11.024      11.161      11.046      10.719      10.233      9.6401      8.9786      8.2796      7.5697    
  6.8763      6.2273      6.5779      5.8693      5.2702      4.7990      4.4625      4.2589      4.1828      4.2302    
  4.4032      4.7102      5.1615      5.7639      6.5145      7.3941      8.3601      9.3438      10.255      11.000    
  11.505      11.737      11.706      11.452      11.020      10.449      9.7683      9.0037      8.1887      7.3649    
  7.8056      6.8725      6.0326      5.3235      4.7628      4.3541      4.0930      3.9736      3.9939      4.1583    
  4.4770      4.9626      5.6244      6.4607      7.4494      8.5391      9.6469      10.669      11.504      12.077    
  12.353      12.368      12.179      11.818      11.279      10.566      9.7167      8.7758      9.2928      8.1702    
  7.0927      6.1299      5.3233      4.6888      4.2257      3.9270      3.7863      3.8024      3.9812      4.3348    
  4.8779      5.6219      6.5636      7.6729      8.8831      10.093      11.187      12.040      12.560      12.781    
  12.805      12.708      12.478      12.034      11.318      10.372      10.924      9.7054      8.4354      7.2251    
  6.1554      5.2697      4.5809      4.0839      3.7688      3.6283      3.6618      3.8764      4.2859      4.9079    
  5.7537      6.8145      8.0448      9.3566      10.628      11.695      12.380      12.681      12.757      12.792    
  12.860      12.863      12.607      11.951      12.403      11.337      9.9874      8.5850      7.2621      6.1078    
  5.1658      4.4449      3.9357      3.6252      3.5054      3.5760      3.8454      4.3303      5.0500      6.0132    
  7.1981      8.5368      9.9140      11.150      11.970      12.266      12.198      12.083      12.183      12.529    
  12.892      12.929      12.989      12.649      11.580      10.123      8.6113      7.2021      5.9902      5.0174    
  4.2880      3.7881      3.5023      3.4216      3.5465      3.8879      4.4655      5.2989      6.3886      7.6928    
  9.1137      10.488      11.476      11.800      11.508      10.973      10.685      10.955      11.720      12.570    
  11.985      12.833      12.699      11.645      10.107      8.5150      7.0502      5.8102      4.8335      4.1189    
  3.6485      3.4049      3.3791      3.5733      4.0017      4.6867      5.6451      6.8632      8.2717      9.7356    
  10.948      11.449      11.061      10.048      9.0304      8.6563      9.2362      10.555      9.2509      11.287    
  12.545      12.589      11.544      9.9467      8.3051      6.8171      5.5793      4.6248      3.9468      3.5237    
  3.3371      3.3792      3.6550      4.1828      4.9864      6.0755      7.4159      8.9053      10.332      11.183    
  10.997      9.7595      7.9974      6.5749      6.2563      7.2876      5.4543      8.0727      10.648      12.219    
  12.363      11.297      9.6569      7.9974      6.5185      5.3120      4.4038      3.7811      3.4199      3.3019    
  3.4218      3.7889      4.4252      5.3537      6.5726      8.0221      9.5624      10.822      11.151      10.164    
  8.0576      5.6344      3.9673      3.8688      1.9189      4.0849      7.2653      10.215      11.931      12.057    
  10.926      9.2595      7.6125      6.1732      5.0244      4.1830      3.6307      3.3421      3.3010      3.5058    
  3.9706      4.7205      5.7747      7.1156      8.6559      10.197      11.172      10.894      9.1061      6.2429    
  3.3533      1.6522      4.9752      5.4376      7.2651      9.6676      11.641      12.463      11.986      10.611    
  8.9685      7.4069      6.0640      5.0026      4.2302      3.7272      3.4714      3.4497      3.6621      4.1219    
  4.8524      5.8705      7.1585      8.6351      10.133      11.205      11.264      10.094      8.0627      6.0357    
  5.1418      4.2016      4.9226      6.9914      9.4960      11.405      12.060      11.425      9.9867      8.3751    
  6.8818      5.6298      4.6678      3.9941      3.5857      3.4214      3.4922      3.8027      4.3706      5.2200    
  6.3616      7.7619      9.3172      10.803      11.650      11.303      9.6715      7.2895      6.9914      4.9227    
  4.2017      5.1419      7.2895      9.6714      11.303      11.650      10.803      9.3169      7.7619      6.3617    
  5.2200      4.3705      3.8027      3.4923      3.4214      3.5856      3.9942      4.6680      5.6298      6.8818    
  8.3751      9.9869      11.425      12.060      11.405      9.4961      9.6676      7.2651      5.4376      4.9754    
  6.0358      8.0626      10.094      11.264      11.205      10.133      8.6349      7.1585      5.8706      4.8524    