unknown system                          
   1.00000000000000     
    -2.386239    2.386239    1.367650
     2.386239   -2.386239    1.367650
     2.386239    2.386239   -1.367650
   Si
     2
Direct
  0.250000  0.750000  0.500000
  0.000000  0.000000  0.000000
 
   28   28   28
 -5.5891     -4.0485     -.35951E-01  4.9273      9.1421      11.474      11.726      10.514      8.7919      7.1605    
  5.7974      4.7625      4.0525      3.6416      3.5074      3.6416      4.0525      4.7625      5.7974      7.1605    
  8.7919      10.514      11.726      11.474      9.1421      4.9273     -.35972E-01 -4.0486     -4.0486     -4.8519    
 -2.6980      1.5557      6.3094      9.9839      11.685      11.449      10.015      8.2971      6.7358      5.4652    
  4.5243      3.9009      3.5684      3.5074      3.7136      4.1988      4.9875      6.1028      7.5374      9.2112    
  10.897      11.881      11.246      8.5344      4.1556     -.60279     -.35972E-01 -2.6980     -2.7742     -.24340    
  3.8718      8.0199      10.852      11.769      11.025      9.4288      7.7559      6.2883      5.1253      4.2863    
  3.7522      3.4979      3.5074      3.7805      4.3318      5.1863      6.3628      7.8432      9.5301      11.153    
  11.953      11.102      8.3133      4.1556      4.9273      1.5557     -.24340     0.27443      2.8800      6.4922    
  9.7257      11.541      11.641      10.460      8.7961      7.1985      5.8431      4.7961      4.0606      3.6141    
  3.4335      3.5075      3.8387      4.4439      5.3469      6.5613      8.0586      9.7294      11.281      11.972    
  11.102      8.5344      9.1421      6.3094      3.8718      2.8800      3.7733      6.1482      8.9743      11.123    
  11.895      11.272      9.7959      8.1516      6.6547      5.4229      4.4936      3.8582      3.4929      3.3786    
  3.5075      3.8852      4.5287      5.4597      6.6857      8.1699      9.7972      11.281      11.953      11.246    
  11.474      9.9839      8.0199      6.4922      6.1482      7.1681      9.0650      10.951      12.004      11.855    
  10.698      9.1021      7.5288      6.1512      5.0470      4.2311      3.6874      3.3939      3.3353      3.5076    
  3.9175      4.5816      5.5178      6.7281      8.1699      9.7294      11.153      11.881      11.726      11.685    
  10.852      9.7257      8.9743      9.0650      9.9892      11.264      12.205      12.301      11.460      10.010    
  8.4302      6.9590      5.7108      4.7307      4.0183      3.5547      3.3207      3.3056      3.5077      3.9341    
  4.5995      5.5178      6.6857      8.0586      9.5301      10.897      10.514      11.449      11.769      11.541    
  11.123      10.951      11.264      11.942      12.573      12.700      12.085      10.838      9.3218      7.8186    
  6.4696      5.3512      4.4852      3.8622      3.4641      3.2760      3.2905      3.5077      3.9341      4.5816    
  5.4597      6.5613      7.8432      9.2112      8.7919      10.015      11.025      11.641      11.895      12.004    
  12.205      12.573      12.946      13.025      12.564      11.536      10.160      8.6959      7.3024      6.0830    
  5.0857      4.3178      3.7671      3.4182      3.2609      3.2905      3.5077      3.9175      4.5287      5.3469    
  6.3628      7.5374      7.1605      8.2971      9.4288      10.460      11.272      11.855      12.301      12.700    
  13.025      13.128      12.826      12.043      10.885      9.5452      8.1793      6.9111      5.8158      4.9230    
  4.2331      3.7351      3.4182      3.2760      3.3056      3.5076      3.8852      4.4439      5.1863      6.1028    
  5.7974      6.7358      7.7558      8.7962      9.7959      10.698      11.460      12.085      12.564      12.826    
  12.756      12.278      11.422      10.304      9.0563      7.8113      6.6672      5.6794      4.8682      4.2331    
  3.7671      3.4641      3.3207      3.3353      3.5075      3.8387      4.3318      4.9875      4.7625      5.4652    
  6.2883      7.1985      8.1516      9.1022      10.010      10.838      11.536      12.043      12.278      12.166    
  11.690      10.893      9.8700      8.7420      7.6201      6.5843      5.6794      4.9230      4.3178      3.8622    
  3.5547      3.3939      3.3786      3.5075      3.7805      4.1988      4.0525      4.5244      5.1253      5.8431    
  6.6547      7.5288      8.4302      9.3219      10.160      10.885      11.422      11.690      11.632      11.234    
  10.541      9.6390      8.6337      7.6201      6.6672      5.8158      5.0857      4.4852      4.0183      3.6874    
  3.4929      3.4335      3.5074      3.7136      3.6416      3.9009      4.2863      4.7961      5.4229      6.1512    
  6.9590      7.8186      8.6959      9.5452      10.304      10.893      11.234      11.270      10.986      10.417    
  9.6390      8.7420      7.8113      6.9111      6.0830      5.3512      4.7307      4.2311      3.8582      3.6141    
  3.4979      3.5074      3.5074      3.5684      3.7522      4.0606      4.4936      5.0470      5.7108      6.4696    
  7.3024      8.1793      9.0563      9.8700      10.541      10.986      11.142      10.986      10.541      9.8700    
  9.0563      8.1793      7.3024      6.4696      5.7108      5.0470      4.4936      4.0606      3.7522      3.5684    
  3.6416      3.5074      3.4978      3.6140      3.8581      4.2310      4.7307      5.3512      6.0829      6.9111    
  7.8113      8.7421      9.6390      10.417      10.986      11.270      11.234      10.893      10.304      9.5452    
  8.6959      7.8186      6.9590      6.1512      5.4229      4.7961      4.2863      3.9009      4.0525      3.7136    
  3.5074      3.4335      3.4929      3.6874      4.0183      4.4851      5.0856      5.8158      6.6672      7.6200    
  8.6337      9.6390      10.541      11.234      11.632      11.690      11.422      10.885      10.160      9.3218    
  8.4302      7.5288      6.6547      5.8431      5.1253      4.5243      4.7625      4.1988      3.7805      3.5074    
  3.3785      3.3938      3.5546      3.8622      4.3178      4.9230      5.6794      6.5843      7.6200      8.7421    
  9.8700      10.893      11.690      12.166      12.278      12.043      11.536      10.838      10.010      9.1021    
  8.1516      7.1985      6.2883      5.4652      5.7974      4.9875      4.3318      3.8387      3.5075      3.3353    
  3.3207      3.4640      3.7670      4.2330      4.8682      5.6794      6.6672      7.8113      9.0563      10.304    
  11.422      12.278      12.756      12.826      12.564      12.085      11.460      10.698      9.7959      8.7961    
  7.7559      6.7358      7.1605      6.1028      5.1862      4.4438      3.8851      3.5075      3.3056      3.2759    
  3.4182      3.7350      4.2330      4.9230      5.8158      6.9111      8.1793      9.5452      10.885      12.043    
  12.826      13.128      13.025      12.700      12.301      11.855      11.272      10.460      9.4288      8.2971    
  8.7919      7.5373      6.3628      5.3468      4.5287      3.9175      3.5076      3.2905      3.2608      3.4182    
  3.7670      4.3178      5.0856      6.0829      7.3024      8.6959      10.160      11.536      12.564      13.025    
  12.946      12.573      12.205      12.004      11.895      11.641      11.025      10.015      10.514      9.2112    
  7.8431      6.5613      5.4596      4.5815      3.9341      3.5076      3.2905      3.2759      3.4640      3.8622    
  4.4851      5.3512      6.4696      7.8186      9.3219      10.838      12.085      12.700      12.573      11.942    
  11.264      10.951      11.123      11.541      11.769      11.449      11.726      10.897      9.5301      8.0586    
  6.6857      5.5178      4.5995      3.9341      3.5076      3.3056      3.3207      3.5546      4.0183      4.7307    
  5.7108      6.9590      8.4302      10.010      11.460      12.301      12.205      11.264      9.9892      9.0650    
  8.9743      9.7257      10.852      11.685      11.474      11.881      11.153      9.7294      8.1699      6.7280    
  5.5178      4.5815      3.9175      3.5075      3.3353      3.3938      3.6874      4.2310      5.0470      6.1512    
  7.5288      9.1022      10.698      11.855      12.004      10.951      9.0650      7.1681      6.1482      6.4922    
  8.0199      9.9839      9.1421      11.246      11.953      11.281      9.7972      8.1699      6.6857      5.4596    
  4.5287      3.8851      3.5075      3.3785      3.4929      3.8581      4.4936      5.4229      6.6547      8.1516    
  9.7959      11.272      11.895      11.123      8.9743      6.1482      3.7733      2.8800      3.8718      6.3094    
  4.9273      8.5344      11.102      11.972      11.281      9.7294      8.0586      6.5613      5.3468      4.4438    
  3.8387      3.5074      3.4335      3.6140      4.0606      4.7961      5.8431      7.1985      8.7962      10.460    
  11.641      11.541      9.7257      6.4922      2.8800     0.27443     -.24340      1.5557     -.35951E-01  4.1556    
  8.3133      11.102      11.953      11.153      9.5301      7.8431      6.3628      5.1862      4.3318      3.7805    
  3.5074      3.4978      3.7522      4.2863      5.1253      6.2883      7.7558      9.4288      11.025      11.769    
  10.852      8.0199      3.8718     -.24340     -2.7742     -2.6980     -4.0485     -.60276      4.1556      8.5344    
  11.246      11.881      10.897      9.2112      7.5373      6.1028      4.9875      4.1988      3.7136      3.5074    
  3.5684      3.9009      4.5244      5.4652      6.7358      8.2971      10.015      11.449      11.685      9.9839    
  6.3094      1.5557     -2.6980     -4.8519     -4.0485     -2.9282     0.58323      5.1260      9.0896      11.336    
  11.601      10.423      8.7092      7.0710      5.6920      4.6356      3.9001      3.4598      3.2904      3.3813    
  3.7386      4.3837      5.3434      6.6280      8.1940      9.8992      11.271      11.409      9.6444      6.0318    
  1.5212     -2.3334     -2.9283     -4.0485     -2.3334      1.5211      6.0318      9.6445      11.409      11.271    
  9.8992      8.1940      6.6280      5.3433      4.3837      3.7386      3.3813      3.2904      3.4599      3.9002    
  4.6356      5.6921      7.0710      8.7092      10.423      11.601      11.336      9.0896      5.1260     0.58322    
 0.68223     -2.2279     -2.6980     -.55746      3.3071      7.4023      10.344      11.436      10.838      9.3059    
  7.6449      6.1731      4.9977      4.1431      3.5922      3.3188      3.3056      3.5509      4.0691      4.8862    
  6.0253      7.4778      9.1622      10.851      11.852      11.311      8.8428      4.8887      5.3832      1.8058    
 -.35965     -.24340      2.0714      5.5968      8.9454      10.992      11.326      10.295      8.6786      7.0901    
  5.7296      4.6721      3.9254      3.4678      3.2753      3.3353      3.6502      4.2371      5.1221      6.3242    
  7.8243      9.5262      11.171      12.045      11.396      8.9898      9.5134      6.5154      3.7430      2.3379    
  2.8800      5.0878      7.9733      10.354      11.416      11.027      9.6663      8.0490      6.5562      5.3185    
  4.3816      3.7402      3.3708      3.2531      3.3786      3.7533      4.3956      5.3304      6.5709      8.0888    
  9.7779      11.369      12.190      11.607      11.896      10.297      8.0573      6.1350      5.3940      6.1482    
  7.9959      10.044      11.379      11.511      10.538      9.0049      7.4459      6.0673      4.9575      4.1381    
  3.5950      3.3054      3.2531      3.4337      3.8552      4.5364      5.4988      6.7498      8.2532      9.8991    
  11.434      12.270      12.251      12.175      11.157      9.7036      8.5595      8.3127      9.0650      10.378    
  11.524      11.887      11.264      9.9207      8.3641      6.8964      5.6438      4.6607      3.9507      3.4953    
  3.2741      3.2754      3.4980      3.9510      4.6515      5.6170      6.8485      8.3051      9.8789      11.354    
  11.118      12.091      12.334      11.889      11.146      10.628      10.681      11.264      11.975      12.293    
  11.878      10.757      9.2747      7.7774      6.4246      5.3022      4.4383      3.8253      3.4439      3.2776    
  3.3188      3.5686      4.0356      4.7341      5.6769      6.8595      8.2391      9.7157      9.4180      10.728    
  11.758      12.281      12.324      12.146      12.066      12.247      12.573      12.728      12.399      11.477    
  10.135      8.6750      7.2765      6.0514      5.0549      4.2971      3.7652      3.4419      3.3154      3.3813    
  3.6418      4.1040      4.7789      5.6740      6.7810      8.0583      7.7741      9.0043      10.206      11.247    
  11.971      12.370      12.583      12.767      12.958      13.025      12.761      12.030      10.887      9.5409    
  8.1659      6.8897      5.7935      4.9104      4.2409      3.7715      3.4888      3.3856      3.4598      3.7137    
  4.1523      4.7825      5.6078      6.6176      6.3800      7.4057      8.5016      9.5897      10.590      11.417    
  12.032      12.477      12.793      12.945      12.826      12.329      11.450      10.309      9.0439      7.7870    
  6.6404      5.6627      4.8739      4.2710      3.8433      3.5827      3.4854      3.5508      3.7805      4.1772    
  4.7444      5.4824      5.3057      6.0843      6.9777      7.9423      8.9207      9.8546      10.697      11.409    
  11.966      12.340      12.469      12.278      11.739      10.897      9.8433      8.6969      7.5705      6.5456    
  5.6664      4.9473      4.3865      3.9787      3.7204      3.6108      3.6501      3.8386      4.1772      4.6667    
  4.5543      5.0893      5.7499      6.5176      7.3612      8.2391      9.1078      9.9278      10.662      11.265    
  11.680      11.839      11.690      11.224      10.483      9.5531      8.5395      7.5375      6.6143      5.8069    
  5.1292      4.5847      4.1737      3.8974      3.7571      3.7531      3.8850      4.1522      4.1039      4.4143    
  4.8472      5.3976      6.0529      6.7913      7.5832      8.3959      9.1951      9.9412      10.583      11.054    
  11.288      11.234      10.883      10.273      9.4799      8.5936      7.6963      6.8470      6.0807      5.4153    
  4.8604      4.4228      4.1077      3.9182      3.8551      3.9174      3.9339      4.0355      4.2555      4.5939    
  5.0477      5.6087      6.2620      6.9872      7.7600      8.5515      9.3229      10.020      10.574      10.914    
  10.986      10.773      10.303      9.6394      8.8610      8.0409      7.2349      6.4792      5.7972      5.2057    
  4.7178      4.3432      4.0871      3.9509      4.0355      3.9340      3.9509      4.0871      4.3433      4.7179    
  5.2057      5.7972      6.4792      7.2349      8.0409      8.8610      9.6395      10.303      10.773      10.986    
  10.914      10.574      10.020      9.3228      8.5515      7.7600      6.9872      6.2619      5.6086      5.0476    
  4.5938      4.2555      4.4143      4.1040      3.9174      3.8551      3.9183      4.1077      4.4228      4.8605    
  5.4154      6.0808      6.8470      7.6963      8.5936      9.4799      10.273      10.883      11.234      11.288    
  11.054      10.583      9.9412      9.1951      8.3959      7.5832      6.7913      6.0529      5.3976      4.8472    
  5.0893      4.5543      4.1523      3.8851      3.7532      3.7571      3.8974      4.1737      4.5847      5.1293    
  5.8069      6.6143      7.5375      8.5395      9.5531      10.483      11.224      11.690      11.839      11.680    
  11.265      10.662      9.9278      9.1078      8.2391      7.3612      6.5177      5.7499      6.0843      5.3057    
  4.6667      4.1772      3.8387      3.6501      3.6108      3.7204      3.9787      4.3865      4.9473      5.6665    
  6.5456      7.5704      8.6969      9.8433      10.897      11.739      12.278      12.469      12.340      11.966    
  11.409      10.697      9.8546      8.9207      7.9424      6.9778      7.4058      6.3801      5.4824      4.7445    
  4.1772      3.7805      3.5508      3.4854      3.5827      3.8433      4.2709      4.8739      5.6627      6.6404    
  7.7870      9.0439      10.309      11.450      12.328      12.826      12.945      12.793      12.477      12.032    
  11.417      10.590      9.5897      8.5016      9.0043      7.7742      6.6177      5.6079      4.7826      4.1523    
  3.7137      3.4599      3.3856      3.4888      3.7714      4.2408      4.9104      5.7934      6.8897      8.1659    
  9.5409      10.887      12.030      12.761      13.025      12.958      12.767      12.583      12.370      11.971    
  11.247      10.206      10.728      9.4180      8.0583      6.7811      5.6740      4.7789      4.1040      3.6417    
  3.3813      3.3153      3.4419      3.7651      4.2971      5.0549      6.0514      7.2765      8.6751      10.135    
  11.477      12.399      12.728      12.573      12.246      12.066      12.145      12.324      12.281      11.758    
  12.091      11.118      9.7157      8.2391      6.8595      5.6769      4.7341      4.0355      3.5685      3.3188    
  3.2775      3.4438      3.8252      4.4382      5.3022      6.4246      7.7774      9.2747      10.757      11.878    
  12.293      11.975      11.264      10.680      10.628      11.146      11.889      12.334      12.175      12.251    
  11.354      9.8789      8.3050      6.8485      5.6170      4.6515      3.9510      3.4979      3.2753      3.2740    
  3.4952      3.9506      4.6606      5.6438      6.8963      8.3641      9.9206      11.264      11.887      11.524    
  10.378      9.0650      8.3127      8.5595      9.7035      11.157      10.297      11.896      12.270      11.434    
  9.8991      8.2532      6.7498      5.4988      4.5363      3.8552      3.4336      3.2530      3.3053      3.5949    
  4.1380      4.9575      6.0673      7.4459      9.0049      10.538      11.511      11.379      10.044      7.9959    
  6.1482      5.3940      6.1350      8.0573      6.5154      9.5134      11.607      12.190      11.369      9.7779    
  8.0887      6.5709      5.3303      4.3955      3.7532      3.3785      3.2530      3.3707      3.7401      4.3815    
  5.3185      6.5562      8.0490      9.6663      11.027      11.416      10.354      7.9733      5.0878      2.8800    
  2.3380      3.7431      1.8059      5.3832      8.9898      11.396      12.045      11.171      9.5262      7.8242    
  6.3241      5.1220      4.2370      3.6501      3.3353      3.2752      3.4677      3.9253      4.6721      5.7296    
  7.0901      8.6786      10.295      11.326      10.992      8.9454      5.5968      2.0715     -.24332     -.35958    
 -2.2279     0.68227      4.8887      8.8428      11.311      11.852      10.851      9.1621      7.4777      6.0252    
  4.8861      4.0690      3.5508      3.3055      3.3187      3.5922      4.1431      4.9977      6.1731      7.6449    
  9.3059      10.837      11.435      10.344      7.4023      3.3071     -.55740     -2.6979     -.35786E-01 0.68236    
  3.3970      7.0073      10.145      11.816      11.776      10.496      8.7818      7.1535      5.7767      4.7113    
  3.9559      3.4854      3.2759      3.3154      3.6070      4.1681      5.0239      6.1902      7.6412      9.2723    
  10.789      11.456      10.601      8.1142      4.6684      1.5213     0.58333     -.60261     0.58332      3.6411    
  7.3292      10.284      11.639      11.319      9.9107      8.2231      6.6727      5.3936      4.4284      3.7678    
  3.3857      3.2609      3.3857      3.7678      4.4284      5.3936      6.6727      8.2231      9.9106      11.319    
  11.639      10.284      7.3292      3.6411      3.3970     0.68233     -.35825E-01  1.5212      4.6684      8.1143    
  10.601      11.457      10.789      9.2723      7.6412      6.1901      5.0239      4.1681      3.6070      3.3154    
  3.2760      3.4855      3.9559      4.7113      5.7768      7.1535      8.7818      10.496      11.776      11.816    
  10.145      7.0073      7.2501      4.0019      1.8059      1.5558      3.3071      6.2552      9.1587      10.953    
  11.204      10.188      8.6162      7.0650      5.7291      4.6845      3.9415      3.4802      3.2776      3.3207    
  3.6109      4.1635      5.0039      6.1544      7.6071      9.2866      10.998      12.165      12.038      10.275    
  10.687      8.0287      5.3463      3.7431      3.8719      5.5968      8.0760      10.211      11.192      10.830    
  9.5338      7.9720      6.5201      5.3096      4.3896      3.7579      3.3926      3.2740      3.3939      3.7572    
  4.3815      5.2919      6.5062      8.0069      9.7060      11.391      12.483      12.321      12.634      11.307    
  9.1898      7.1722      6.1350      6.4922      7.9734      9.7837      11.039      11.208      10.323      8.8671    
  7.3656      6.0287      4.9485      4.1508      3.6244      3.3478      3.3053      3.4929      3.9183      4.5997    
  5.5600      6.8112      8.3268      10.010      11.648      12.708      12.807      12.907      11.994      10.495    
  9.1354      8.5595      8.9743      10.044      11.091      11.485      10.960      9.7172      8.2327      6.8204    
  5.6094      4.6587      3.9765      3.5459      3.3478      3.3707      3.6141      4.0871      4.8070      5.7928    
  7.0496      8.5435      10.175      11.746      11.666      12.738      13.050      12.579      11.678      10.888    
  10.628      10.951      11.524      11.835      11.503      10.488      9.0898      7.6579      6.3570      5.2767    
  4.4499      3.8721      3.5249      3.3925      3.4677      3.7523      4.2555      4.9919      5.9754      7.2043    
  8.6394      10.183      10.031      11.400      12.472      12.980      12.911      12.516      12.156      12.066    
  12.205      12.293      11.998      11.161      9.9009      8.5079      7.1680      5.9931      5.0418      4.3279    
  3.8403      3.5615      3.4800      3.5921      3.9009      4.4143      5.1430      6.0951      7.2628      8.6050    
  8.4411      9.7273      10.964      12.000      12.653      12.893      12.874      12.799      12.767      12.700    
  12.399      11.701      10.614      9.3253      8.0087      6.7873      5.7432      4.9121      4.2959      3.8813    
  3.6541      3.6068      3.7385      4.0525      4.5542      5.2502      6.1427      7.2198      7.0774      8.1591    
  9.2933      10.390      11.352      12.076      12.516      12.737      12.824      12.793      12.564      12.030    
  11.158      10.048      8.8301      7.6270      6.5369      5.6183      4.8921      4.3544      3.9932      3.7989    
  3.7676      3.9001      4.1988      4.6667      5.3058      6.1141      6.0111      6.8460      7.7797      8.7606    
  9.7205      10.590      11.313      11.851      12.201      12.373      12.340      12.043      11.450      10.597    
  9.5667      8.4640      7.3935      6.4333      5.6258      4.9833      4.5015      4.1724      3.9907      3.9557    
  4.0689      4.3317      4.7444      5.3059      5.2503      5.8411      6.5424      7.3304      8.1665      9.0012    
  9.7835      10.471      11.035      11.448      11.676      11.680      11.422      10.897      10.142      9.2336    
  8.2676      7.3315      6.4877      5.7687      5.1844      4.7336      4.4133      4.2227      4.1633      4.2369    
  4.4438      4.7826      4.7789      5.1432      5.6162      6.1882      6.8418      7.5498      8.2770      8.9867    
  9.6449      10.220      10.676      10.970      11.054      10.893      10.483      9.8610      9.0956      8.2689    
  7.4545      6.7041      6.0458      5.4913      5.0447      4.7086      4.4864      4.3814      4.3955      4.5286    
  4.5815      4.7342      4.9921      5.3518      5.8066      6.3443      6.9465      7.5891      8.2457      8.8891    
  9.4880      10.002      10.382      10.574      10.541      10.273      9.8003      9.1794      8.4798      7.7644    
  7.0788      6.4508      5.8963      5.4259      5.0484      4.7713      4.5997      4.5363      4.6515      4.5995    
  4.6515      4.8072      5.0648      5.4200      5.8649      6.3873      6.9715      7.5997      8.2504      8.8942    
  9.4886      9.9780      10.303      10.417      10.303      9.9780      9.4886      8.8942      8.2504      7.5997    
  6.9715      6.3873      5.8649      5.4199      5.0647      4.8072      4.9921      4.7342      4.5815      4.5364    
  4.5998      4.7714      5.0485      5.4260      5.8964      6.4508      7.0788      7.7644      8.4798      9.1794    
  9.8003      10.273      10.541      10.574      10.382      10.002      9.4880      8.8891      8.2457      7.5891    
  6.9465      6.3443      5.8065      5.3518      5.6162      5.1432      4.7790      4.5287      4.3956      4.3815    
  4.4864      4.7086      5.0447      5.4914      6.0458      6.7041      7.4545      8.2689      9.0956      9.8610    
  10.483      10.893      11.054      10.970      10.676      10.220      9.6449      8.9867      8.2770      7.5498    
  6.8418      6.1882      6.5425      5.8411      5.2504      4.7826      4.4438      4.2370      4.1634      4.2227    
  4.4133      4.7336      5.1844      5.7687      6.4877      7.3315      8.2676      9.2336      10.142      10.897    
  11.422      11.680      11.676      11.448      11.035      10.471      9.7835      9.0012      8.1665      7.3304    
  7.7797      6.8460      6.0112      5.3060      4.7445      4.3318      4.0690      3.9558      3.9907      4.1724    
  4.5015      4.9833      5.6258      6.4333      7.3935      8.4640      9.5667      10.597      11.450      12.043    
  12.340      12.373      12.201      11.851      11.313      10.590      9.7205      8.7606      9.2934      8.1592    
  7.0775      6.1142      5.3059      4.6667      4.1988      3.9001      3.7676      3.7989      3.9932      4.3544    
  4.8921      5.6183      6.5369      7.6270      8.8302      10.048      11.158      12.030      12.564      12.793    
  12.824      12.736      12.516      12.076      11.352      10.390      10.964      9.7274      8.4412      7.2198    
  6.1428      5.2502      4.5543      4.0525      3.7386      3.6068      3.6541      3.8813      4.2960      4.9121    
  5.7432      6.7873      8.0088      9.3254      10.614      11.701      12.399      12.700      12.767      12.799    
  12.874      12.893      12.653      12.000      12.472      11.400      10.031      8.6051      7.2629      6.0951    
  5.1431      4.4143      3.9009      3.5922      3.4801      3.5616      3.8403      4.3279      5.0417      5.9930    
  7.1681      8.5079      9.9009      11.161      11.997      12.293      12.205      12.066      12.156      12.516    
  12.911      12.980      13.050      12.738      11.666      10.183      8.6394      7.2043      5.9755      4.9920    
  4.2555      3.7523      3.4677      3.3925      3.5249      3.8720      4.4499      5.2767      6.3570      7.6579    
  9.0898      10.488      11.502      11.834      11.524      10.951      10.628      10.888      11.678      12.579    
  11.994      12.907      12.806      11.746      10.175      8.5435      7.0497      5.7929      4.8071      4.0871    
  3.6141      3.3707      3.3477      3.5459      3.9764      4.6587      5.6094      6.8204      8.2327      9.7172    
  10.960      11.484      11.091      10.044      8.9742      8.5595      9.1354      10.494      9.1898      11.306    
  12.634      12.708      11.648      10.010      8.3268      6.8112      5.5600      4.5997      3.9182      3.4929    
  3.3053      3.3478      3.6244      4.1508      4.9485      6.0288      7.3656      8.8671      10.323      11.208    
  11.039      9.7837      7.9733      6.4922      6.1350      7.1722      5.3464      8.0287      10.687      12.321    
  12.483      11.391      9.7060      8.0069      6.5062      5.2919      4.3814      3.7571      3.3938      3.2740    
  3.3925      3.7578      4.3896      5.3096      6.5201      7.9720      9.5338      10.830      11.192      10.211    
  8.0760      5.5969      3.8719      3.7431      1.8060      4.0019      7.2501      10.275      12.038      12.165    
  10.998      9.2866      7.6071      6.1544      5.0039      4.1634      3.6109      3.3207      3.2776      3.4802    
  3.9414      4.6845      5.7291      7.0650      8.6162      10.188      11.204      10.953      9.1586      6.2552    
  3.3072      1.5558      4.9275      5.3833      7.2501      9.7211      11.757      12.603      12.105      10.682    
  8.9916      7.4022      6.0518      4.9925      4.2228      3.7205      3.4640      3.4419      3.6542      4.1130    
  4.8390      5.8499      7.1353      8.6252      10.156      11.270      11.358      10.184      8.1143      6.0319    
  5.1261      4.1558      4.8888      7.0073      9.5750      11.527      12.185      11.516      10.029      8.3795    
  6.8704      5.6186      4.6616      3.9908      3.5828      3.4182      3.4889      3.7990      4.3646      5.2085    
  6.3448      7.7502      9.3307      10.859      11.748      11.417      9.7633      7.3292      7.0073      4.8888    
  4.1558      5.1261      7.3292      9.7633      11.417      11.748      10.859      9.3307      7.7502      6.3448    
  5.2085      4.3646      3.7990      3.4889      3.4182      3.5828      3.9908      4.6616      5.6186      6.8704    
  8.3795      10.029      11.516      12.185      11.527      9.5750      9.7211      7.2501      5.3833      4.9275    
  6.0319      8.1143      10.184      11.358      11.270      10.156      8.6252      7.1353      5.8499      4.8390    