unknown system                          
   1.00000000000000     
    -2.450000    2.450000    1.274000
     2.450000   -2.450000    1.274000
     2.450000    2.450000   -1.274000
   Si
     2
Direct
  0.250000  0.750000  0.500000
  0.000000  0.000000  0.000000
 
   28   28   28
 -5.4720     -3.9415     0.38630E-01  4.9494      9.1096      11.411      11.670      10.492      8.8080      7.2009    
  5.8455      4.8086      4.0937      3.6786      3.5427      3.6785      4.0937      4.8087      5.8456      7.2008    
  8.8079      10.492      11.670      11.411      9.1097      4.9495     0.38544E-01 -3.9417     -3.9417     -4.7255    
 -2.5756      1.6444      6.3418      9.9623      11.640      11.417      10.017      8.3323      6.7873      5.5187    
  4.5731      3.9437      3.6062      3.5427      3.7495      4.2375      5.0286      6.1415      7.5616      9.2038    
  10.849      11.802      11.167      8.4920      4.1698     -.53453     0.38544E-01 -2.5758     -2.6259     -.10131    
  3.9715      8.0567      10.837      11.738      11.013      9.4502      7.8020      6.3436      5.1789      4.3343    
  3.7946      3.5357      3.5428      3.8155      4.3675      5.2211      6.3903      7.8499      9.5002      11.082    
  11.856      11.014      8.2668      4.1698      4.9495      1.6444     -.10136     0.44114      3.0304      6.5885    
  9.7557      11.526      11.621      10.463      8.8277      7.2465      5.8942      4.8439      4.1041      3.6539    
  3.4705      3.5428      3.8732      4.4769      5.3757      6.5785      8.0507      9.6834      11.197      11.870    
  11.014      8.4920      9.1097      6.3419      3.9715      3.0304      3.9386      6.2838      9.0485      11.136    
  11.878      11.261      9.8091      8.1856      6.6965      5.4634      4.5309      3.8937      3.5281      3.4140    
  3.5430      3.9195      4.5598      5.4839      6.6956      8.1536      9.7453      11.197      11.856      11.167    
  11.411      9.9623      8.0567      6.5885      6.2839      7.3049      9.1629      10.992      12.000      11.839    
  10.697      9.1225      7.5600      6.1819      5.0730      4.2548      3.7130      3.4235      3.3690      3.5431    
  3.9519      4.6115      5.5396      6.7354      8.1536      9.6834      11.082      11.802      11.670      11.639    
  10.837      9.7556      9.0486      9.1631      10.078      11.315      12.216      12.291      11.456      10.026    
  8.4578      6.9858      5.7288      4.7411      4.0280      3.5702      3.3451      3.3376      3.5433      3.9686    
  4.6291      5.5396      6.6956      8.0507      9.5002      10.849      10.492      11.417      11.738      11.526    
  11.136      10.992      11.315      11.982      12.589      12.701      12.090      10.860      9.3589      7.8554    
  6.4930      5.3577      4.4815      3.8597      3.4715      3.2965      3.3216      3.5433      3.9686      4.6115    
  5.4839      6.5785      7.8499      9.2038      8.8079      10.018      11.013      11.621      11.878      12.000    
  12.216      12.590      12.960      13.038      12.586      11.577      10.220      8.7591      7.3505      6.1050    
  5.0835      4.3038      3.7562      3.4211      3.2800      3.3216      3.5433      3.9519      4.5598      5.3757    
  6.3903      7.5616      7.2008      8.3322      9.4503      10.463      11.261      11.839      12.291      12.701    
  13.038      13.152      12.869      12.111      10.977      9.6470      8.2693      6.9707      5.8381      4.9157    
  4.2136      3.7213      3.4211      3.2965      3.3376      3.5431      3.9195      4.4769      5.2211      6.1415    
  5.8456      6.7872      7.8019      8.8277      9.8092      10.697      11.456      12.090      12.586      12.869    
  12.825      12.377      11.550      10.448      9.1964      7.9236      6.7355      5.7024      4.8592      4.2136    
  3.7562      3.4715      3.3451      3.3690      3.5430      3.8732      4.3675      5.0286      4.8087      5.5188    
  6.3435      7.2464      8.1855      9.1226      10.026      10.860      11.577      12.111      12.377      12.298    
  11.853      11.076      10.057      8.9089      7.7449      6.6558      5.7024      4.9157      4.3038      3.8597    
  3.5702      3.4235      3.4140      3.5428      3.8155      4.2375      4.0937      4.5733      5.1790      5.8942    
  6.6964      7.5600      8.4578      9.3589      10.220      10.977      11.550      11.853      11.824      11.448    
  10.763      9.8496      8.8102      7.7449      6.7355      5.8381      5.0835      4.4815      4.0280      3.7130    
  3.5281      3.4705      3.5428      3.7495      3.6785      3.9436      4.3344      4.8440      5.4634      6.1819    
  6.9858      7.8554      8.7591      9.6470      10.448      11.076      11.448      11.505      11.229      10.654    
  9.8496      8.9089      7.9236      6.9707      6.1050      5.3577      4.7411      4.2548      3.8937      3.6539    
  3.5357      3.5427      3.5427      3.6060      3.7945      4.1041      4.5309      5.0730      5.7288      6.4930    
  7.3504      8.2693      9.1964      10.057      10.763      11.229      11.392      11.229      10.763      10.057    
  9.1964      8.2693      7.3505      6.4930      5.7288      5.0730      4.5309      4.1041      3.7946      3.6062    
  3.6786      3.5427      3.5355      3.6537      3.8936      4.2548      4.7411      5.3577      6.1050      6.9707    
  7.9236      8.9089      9.8496      10.654      11.229      11.505      11.448      11.076      10.448      9.6470    
  8.7591      7.8554      6.9858      6.1819      5.4634      4.8439      4.3343      3.9437      4.0937      3.7495    
  3.5427      3.4704      3.5280      3.7129      4.0280      4.4816      5.0836      5.8381      6.7354      7.7448    
  8.8102      9.8496      10.763      11.448      11.824      11.853      11.550      10.977      10.220      9.3589    
  8.4578      7.5600      6.6965      5.8942      5.1789      4.5731      4.8086      4.2374      3.8155      3.5428    
  3.4140      3.4235      3.5701      3.8596      4.3038      4.9157      5.7024      6.6558      7.7448      8.9089    
  10.057      11.076      11.853      12.298      12.377      12.111      11.577      10.860      10.026      9.1225    
  8.1856      7.2465      6.3436      5.5187      5.8455      5.0284      4.3673      3.8731      3.5430      3.3690    
  3.3451      3.4715      3.7562      4.2136      4.8593      5.7024      6.7354      7.9236      9.1964      10.448    
  11.550      12.377      12.825      12.869      12.586      12.090      11.456      10.697      9.8091      8.8277    
  7.8020      6.7873      7.2009      6.1415      5.2210      4.4768      3.9194      3.5432      3.3377      3.2966    
  3.4211      3.7213      4.2136      4.9157      5.8381      6.9707      8.2693      9.6470      10.977      12.111    
  12.869      13.152      13.038      12.701      12.291      11.839      11.261      10.463      9.4502      8.3323    
  8.8080      7.5616      6.3904      5.3757      4.5598      3.9518      3.5433      3.3217      3.2801      3.4211    
  3.7562      4.3038      5.0836      6.1050      7.3504      8.7591      10.220      11.577      12.586      13.038    
  12.960      12.589      12.216      12.000      11.878      11.621      11.013      10.017      10.492      9.2038    
  7.8499      6.5785      5.4840      4.6115      3.9685      3.5434      3.3217      3.2966      3.4715      3.8596    
  4.4816      5.3577      6.4930      7.8554      9.3589      10.860      12.090      12.701      12.590      11.982    
  11.315      10.992      11.136      11.526      11.738      11.417      11.670      10.849      9.5001      8.0506    
  6.6957      5.5398      4.6291      3.9685      3.5433      3.3377      3.3451      3.5701      4.0280      4.7411    
  5.7288      6.9858      8.4578      10.026      11.456      12.291      12.216      11.315      10.078      9.1629    
  9.0485      9.7557      10.837      11.640      11.411      11.802      11.082      9.6833      8.1535      6.7355    
  5.5398      4.6115      3.9518      3.5432      3.3690      3.4235      3.7129      4.2548      5.0730      6.1819    
  7.5600      9.1226      10.697      11.839      12.000      10.992      9.1631      7.3049      6.2838      6.5885    
  8.0567      9.9623      9.1096      11.167      11.856      11.197      9.7452      8.1535      6.6957      5.4840    
  4.5598      3.9194      3.5430      3.4140      3.5280      3.8936      4.5309      5.4634      6.6964      8.1855    
  9.8092      11.261      11.878      11.136      9.0486      6.2839      3.9386      3.0304      3.9715      6.3418    
  4.9494      8.4919      11.014      11.870      11.197      9.6833      8.0506      6.5785      5.3757      4.4768    
  3.8731      3.5428      3.4704      3.6537      4.1041      4.8440      5.8942      7.2464      8.8277      10.463    
  11.621      11.526      9.7556      6.5885      3.0304     0.44114     -.10131      1.6444     0.38630E-01  4.1696    
  8.2666      11.014      11.856      11.082      9.5001      7.8499      6.3904      5.2210      4.3673      3.8155    
  3.5427      3.5355      3.7945      4.3344      5.1790      6.3435      7.8019      9.4503      11.013      11.738    
  10.837      8.0567      3.9715     -.10136     -2.6259     -2.5756     -3.9415     -.53442      4.1696      8.4919    
  11.167      11.802      10.849      9.2038      7.5616      6.1415      5.0284      4.2374      3.7495      3.5427    
  3.6060      3.9436      4.5733      5.5188      6.7872      8.3322      10.018      11.417      11.639      9.9623    
  6.3419      1.6444     -2.5758     -4.7255     -3.9411     -2.8354     0.62836      5.1066      9.0160      11.243    
  11.527      10.391      8.7187      7.1046      5.7319      4.6729      3.9339      3.4913      3.3213      3.4134    
  3.7737      4.4234      5.3882      6.6730      8.2245      9.8958      11.224      11.333      9.5740      6.0043    
  1.5545     -2.2485     -2.8356     -3.9412     -2.2484      1.5546      6.0043      9.5741      11.333      11.225    
  9.8959      8.2246      6.6731      5.3882      4.4233      3.7737      3.4134      3.3213      3.4912      3.9339    
  4.6730      5.7318      7.1044      8.7187      10.391      11.527      11.243      9.0160      5.1067     0.62827    
 0.75231     -2.1123     -2.5754     -.46695      3.3393      7.3749      10.283      11.381      10.818      9.3257    
  7.6896      6.2239      5.0441      4.1836      3.6285      3.3523      3.3374      3.5826      4.1019      4.9205    
  6.0574      7.4958      9.1477      10.792      11.755      11.207      8.7763      4.8892      5.4119      1.9082    
 -.21500     -.10113      2.1698      5.6292      8.9198      10.942      11.291      10.296      8.7130      7.1400    
  5.7795      4.7162      3.9647      3.5044      3.3102      3.3689      3.6832      4.2697      5.1532      6.3478    
  7.8266      9.4900      11.090      11.935      11.295      8.9406      9.4868      6.5718      3.8721      2.5024    
  3.0305      5.1831      7.9984      10.327      11.375      11.008      9.6819      8.0889      6.6029      5.3613    
  4.4193      3.7757      3.4063      3.2888      3.4142      3.7880      4.4284      5.3585      6.5868      8.0783    
  9.7270      11.278      12.080      11.518      11.826      10.291      8.1301      6.2722      5.5551      6.2838    
  8.0702      10.052      11.348      11.479      10.533      9.0287      7.4839      6.1047      4.9889      4.1663    
  3.6244      3.3381      3.2888      3.4708      3.8916      4.5693      5.5245      6.7604      8.2361      9.8442    
  11.346      12.171      12.173      12.123      11.162      9.7744      8.6797      8.4433      9.1628      10.418    
  11.513      11.855      11.245      9.9296      8.3926      6.9283      5.6687      4.6783      3.9672      3.5165    
  3.3026      3.3103      3.5360      3.9882      4.6842      5.6413      6.8577      8.2893      9.8314      11.280    
  11.067      12.035      12.297      11.893      11.197      10.711      10.763      11.315      11.984      12.273    
  11.859      10.760      9.3002      7.8104      6.4500      5.3144      4.4419      3.8297      3.4567      3.3018    
  3.3523      3.6065      4.0727      4.7665      5.7016      6.8720      8.2325      9.6851      9.4096      10.703    
  11.723      12.254      12.319      12.169      12.107      12.284      12.589      12.725      12.393      11.488    
  10.169      8.7207      7.3157      6.0719      5.0560      4.2882      3.7590      3.4477      3.3360      3.4134    
  3.6789      4.1403      4.8112      5.7013      6.8013      8.0668      7.7999      9.0178      10.202      11.229    
  11.948      12.356      12.584      12.780      12.973      13.037      12.777      12.063      10.943      9.6122    
  8.2342      6.9369      5.8112      4.9032      4.2227      3.7582      3.4909      3.4048      3.4912      3.7497    
  4.1876      4.8157      5.6400      6.6486      6.4223      7.4465      8.5317      9.6017      10.584      11.401    
  12.019      12.476      12.806      12.973      12.869      12.392      11.538      10.416      9.1530      7.8772    
  6.6956      5.6792      4.8616      4.2482      3.8282      3.5854      3.5059      3.5824      3.8155      4.2118    
  4.7796      5.5209      5.3507      6.1354      7.0276      7.9806      8.9403      9.8570      10.693      11.412    
  11.988      12.386      12.540      12.377      11.865      11.044      9.9976      8.8377      7.6771      6.6059    
  5.6821      4.9334      4.3649      3.9678      3.7285      3.6352      3.6828      3.8729      4.2118      4.7048    
  4.5954      5.1390      5.8046      6.5684      7.3986      8.2598      9.1183      9.9422      10.696      11.329    
  11.778      11.971      11.853      11.409      10.679      9.7415      8.6993      7.6509      6.6745      5.8214    
  5.1178      4.5702      4.1729      3.9148      3.7873      3.7876      3.9191      4.1874      4.1401      4.4576    
  4.8980      5.4495      6.0965      6.8206      7.6015      8.4160      9.2345      10.015      10.697      11.209    
  11.477      11.448      11.110      10.497      9.6820      8.7551      7.8044      6.9013      6.0943      5.4103    
  4.8584      4.4361      4.1364      3.9545      3.8912      3.9514      3.9681      4.0724      4.2989      4.6411    
  5.0903      5.6388      6.2793      7.0025      7.7917      8.6183      9.4363      10.181      10.775      11.143    
  11.229      11.016      10.529      9.8320      9.0060      8.1324      7.2788      6.4928      5.8023      5.2195    
  4.7467      4.3827      4.1282      3.9879      4.0725      3.9681      3.9878      4.1281      4.3826      4.7467    
  5.2195      5.8023      6.4927      7.2787      8.1324      9.0060      9.8320      10.529      11.016      11.229    
  11.143      10.775      10.181      9.4363      8.6184      7.7918      7.0025      6.2794      5.6389      5.0903    
  4.6411      4.2990      4.4577      4.1402      3.9515      3.8911      3.9544      4.1363      4.4360      4.8584    
  5.4103      6.0943      6.9013      7.8044      8.7551      9.6820      10.497      11.110      11.448      11.477    
  11.209      10.697      10.015      9.2345      8.4161      7.6016      6.8207      6.0966      5.4495      4.8979    
  5.1389      4.5954      4.1875      3.9192      3.7876      3.7872      3.9148      4.1728      4.5702      5.1178    
  5.8214      6.6745      7.6509      8.6993      9.7415      10.679      11.409      11.853      11.971      11.778    
  11.329      10.696      9.9423      9.1183      8.2599      7.3987      6.5685      5.8046      6.1353      5.3505    
  4.7047      4.2118      3.8730      3.6829      3.6353      3.7285      3.9678      4.3649      4.9334      5.6821    
  6.6059      7.6771      8.8378      9.9977      11.044      11.865      12.377      12.540      12.386      11.988    
  11.412      10.693      9.8570      8.9403      7.9807      7.0276      7.4465      6.4222      5.5208      4.7795    
  4.2118      3.8155      3.5825      3.5059      3.5854      3.8282      4.2482      4.8617      5.6792      6.6956    
  7.8772      9.1531      10.416      11.538      12.392      12.869      12.973      12.806      12.476      12.019    
  11.401      10.584      9.6016      8.5318      9.0178      7.7998      6.6485      5.6399      4.8156      4.1875    
  3.7497      3.4913      3.4049      3.4908      3.7581      4.2228      4.9033      5.8112      6.9369      8.2343    
  9.6123      10.943      12.063      12.777      13.037      12.973      12.780      12.584      12.356      11.948    
  11.229      10.202      10.703      9.4095      8.0667      6.8012      5.7013      4.8112      4.1403      3.6789    
  3.4135      3.3361      3.4477      3.7590      4.2883      5.0560      6.0719      7.3158      8.7208      10.170    
  11.488      12.393      12.725      12.589      12.283      12.107      12.169      12.319      12.254      11.723    
  12.035      11.067      9.6850      8.2324      6.8720      5.7017      4.7665      4.0726      3.6065      3.3524    
  3.3017      3.4566      3.8297      4.4420      5.3144      6.4500      7.8105      9.3004      10.760      11.859    
  12.273      11.984      11.315      10.763      10.711      11.197      11.893      12.297      12.123      12.172    
  11.280      9.8312      8.2892      6.8578      5.6414      4.6842      3.9881      3.5360      3.3103      3.3026    
  3.5165      3.9673      4.6785      5.6688      6.9283      8.3927      9.9297      11.245      11.855      11.513    
  10.418      9.1628      8.4432      8.6796      9.7743      11.162      10.291      11.826      12.171      11.346    
  9.8440      8.2361      6.7605      5.5246      4.5693      3.8915      3.4708      3.2888      3.3380      3.6244    
  4.1664      4.9891      6.1047      7.4839      9.0288      10.533      11.479      11.348      10.052      8.0703    
  6.2838      5.5550      6.2721      8.1300      6.5717      9.4866      11.518      12.080      11.278      9.7270    
  8.0783      6.5869      5.3586      4.4284      3.7880      3.4142      3.2888      3.4062      3.7758      4.4195    
  5.3614      6.6029      8.0889      9.6820      11.008      11.375      10.326      7.9985      5.1832      3.0305    
  2.5024      3.8722      1.9082      5.4118      8.9404      11.295      11.936      11.090      9.4900      7.8267    
  6.3480      5.1533      4.2697      3.6832      3.3690      3.3102      3.5044      3.9648      4.7163      5.7794    
  7.1399      8.7130      10.297      11.291      10.942      8.9197      5.6292      2.1698     -.10106     -.21485    
 -2.1121     0.75242      4.8891      8.7762      11.208      11.755      10.792      9.1477      7.4960      6.0575    
  4.9205      4.1019      3.5827      3.3375      3.3522      3.6285      4.1837      5.0442      6.2238      7.6894    
  9.3257      10.818      11.381      10.283      7.3749      3.3393     -.46697     -2.5753     0.39564E-01 0.75302    
  3.4167      6.9531      10.030      11.682      11.669      10.439      8.7724      7.1716      5.8027      4.7357    
  3.9778      3.5062      3.2965      3.3361      3.6283      4.1916      5.0522      6.2225      7.6668      9.2703    
  10.740      11.361      10.486      8.0229      4.6358      1.5551     0.62890     -.53339     0.62901      3.6270    
  7.2482      10.162      11.520      11.239      9.8824      8.2335      6.6997      5.4211      4.4517      3.7882    
  3.4051      3.2800      3.4050      3.7882      4.4517      5.4211      6.6995      8.2335      9.8825      11.239    
  11.520      10.162      7.2483      3.6270      3.4166     0.75293     0.39607E-01  1.5551      4.6358      8.0228    
  10.486      11.361      10.740      9.2702      7.6669      6.2226      5.0522      4.1916      3.6284      3.3362    
  3.2964      3.5061      3.9777      4.7358      5.8026      7.1715      8.7724      10.439      11.669      11.682    
  10.030      6.9531      7.2351      4.0644      1.9087      1.6452      3.3397      6.2170      9.0699      10.855    
  11.136      10.167      8.6333      7.0990      5.7628      4.7125      3.9660      3.5041      3.3018      3.3450    
  3.6355      4.1891      5.0306      6.1779      7.6141      9.2563      10.916      12.039      11.903      10.182    
  10.625      8.0551      5.4480      3.8724      3.9719      5.6293      8.0376      10.131      11.115      10.788    
  9.5337      7.9995      6.5551      5.3405      4.4157      3.7830      3.4194      3.3026      3.4235      3.7875    
  4.4122      5.3211      6.5267      8.0031      9.6581      11.291      12.350      12.198      12.533      11.275    
  9.2471      7.2955      6.2722      6.5885      7.9983      9.7437      10.969      11.150      10.301      8.8793    
  7.3948      6.0585      4.9729      4.1727      3.6486      3.3764      3.3379      3.5281      3.9546      4.6353    
  5.5911      6.8287      8.3146      9.9521      11.544      12.582      12.698      12.830      11.984      10.563    
  9.2545      8.6795      9.0482      10.051      11.048      11.426      10.921      9.7105      8.2502      6.8449    
  5.6295      4.6736      3.9916      3.5667      3.3763      3.4061      3.6538      4.1282      4.8459      5.8246    
  7.0648      8.5279      10.116      11.650      11.588      12.653      12.992      12.577      11.735      10.979    
  10.710      10.991      11.512      11.791      11.459      10.469      9.0960      7.6766      6.3738      5.2852    
  4.4533      3.8782      3.5402      3.4191      3.5042      3.7946      4.2989      5.0319      6.0069      7.2194    
  8.6270      10.135      10.001      11.347      12.411      12.937      12.904      12.548      12.207      12.107    
  12.215      12.273      11.967      11.143      9.9051      8.5271      7.1876      6.0020      5.0384      4.3193    
  3.8365      3.5703      3.5038      3.6282      3.9437      4.4575      5.1822      6.1264      7.2811      8.6025    
  8.4532      9.7200      10.936      11.961      12.617      12.876      12.879      12.815      12.780      12.700    
  12.393      11.702      10.633      9.3577      8.0428      6.8094      5.7460      4.8984      4.2764      3.8686    
  3.6573      3.6279      3.7734      4.0937      4.5953      5.2877      6.1752      7.2449      7.1120      8.1871    
  9.3067      10.383      11.329      12.046      12.493      12.728      12.829      12.806      12.585      12.063    
  11.207      10.109      8.8934      7.6776      6.5632      5.6172      4.8706      4.3270      3.9751      3.7995    
  3.7877      3.9335      4.2374      4.7047      5.3422      6.1499      6.0517      6.8901      7.8206      8.7882    
  9.7275      10.577      11.292      11.834      12.202      12.396      12.386      12.111      11.538      10.700    
  9.6721      8.5569      7.4597      6.4641      5.6225      4.9576      4.4714      4.1544      3.9933      3.9773    
  4.1015      4.3673      4.7796      5.3423      5.2881      5.8865      6.5931      7.3775      8.1993      9.0138    
  9.7796      10.464      11.040      11.479      11.741      11.778      11.550      11.044      10.295      9.3763    
  8.3835      7.4084      6.5210      5.7647      5.1591      4.7073      4.4019      4.2320      4.1888      4.2693    
  4.4768      4.8159      4.8115      5.1827      5.6643      6.2397      6.8865      7.5787      8.2889      8.9903    
  9.6564      10.257      10.751      11.087      11.209      11.076      10.679      10.051      9.2615      8.3959    
  7.5338      6.7363      6.0423      5.4715      5.0288      4.7097      4.5060      4.4120      4.4282      4.5597    
  4.6115      4.7668      5.0325      5.3987      5.8519      6.3783      6.9646      7.5967      8.2573      8.9230    
  9.5601      10.121      10.546      10.775      10.763      10.497      10.006      9.3494      8.6025      7.8363    
  7.1062      6.4495      5.8868      5.4258      5.0656      4.8024      4.6354      4.5692      4.6844      4.6291    
  4.6844      4.8463      5.1056      5.4530      5.8826      6.3913      6.9741      7.6196      8.3060      8.9973    
  9.6418      10.175      10.529      10.654      10.529      10.175      9.6418      8.9973      8.3060      7.6196    
  6.9741      6.3913      5.8826      5.4530      5.1056      4.8463      5.0325      4.7668      4.6116      4.5693    
  4.6354      4.8024      5.0655      5.4258      5.8868      6.4495      7.1062      7.8362      8.6025      9.3494    
  10.006      10.497      10.763      10.775      10.546      10.121      9.5601      8.9231      8.2573      7.5966    
  6.9645      6.3783      5.8518      5.3986      5.6643      5.1828      4.8116      4.5598      4.4283      4.4121    
  4.5061      4.7097      5.0288      5.4715      6.0424      6.7363      7.5338      8.3959      9.2615      10.051    
  10.679      11.076      11.209      11.087      10.751      10.257      9.6564      8.9903      8.2889      7.5787    
  6.8865      6.2396      6.5931      5.8865      5.2882      4.8160      4.4768      4.2694      4.1888      4.2321    
  4.4019      4.7072      5.1591      5.7647      6.5210      7.4084      8.3835      9.3763      10.295      11.044    
  11.550      11.778      11.741      11.479      11.040      10.464      9.7796      9.0138      8.1994      7.3775    
  7.8207      6.8901      6.0518      5.3424      4.7797      4.3673      4.1016      3.9774      3.9933      4.1543    
  4.4714      4.9576      5.6225      6.4641      7.4597      8.5569      9.6720      10.700      11.538      12.111    
  12.386      12.396      12.202      11.835      11.292      10.577      9.7275      8.7883      9.3067      8.1872    
  7.1120      6.1500      5.3423      4.7047      4.2373      3.9335      3.7877      3.7995      3.9750      4.3270    
  4.8706      5.6171      6.5631      7.6777      8.8934      10.109      11.207      12.063      12.585      12.806    
  12.829      12.728      12.493      12.046      11.329      10.383      10.936      9.7201      8.4532      7.2449    
  6.1753      5.2877      4.5952      4.0936      3.7733      3.6279      3.6572      3.8685      4.2764      4.8984    
  5.7459      6.8094      8.0429      9.3578      10.633      11.702      12.393      12.700      12.780      12.815    
  12.879      12.876      12.617      11.961      12.411      11.347      10.002      8.6024      7.2811      6.1265    
  5.1822      4.4574      3.9435      3.6282      3.5037      3.5702      3.8365      4.3194      5.0385      6.0019    
  7.1876      8.5272      9.9051      11.143      11.967      12.273      12.215      12.107      12.207      12.548    
  12.904      12.936      12.992      12.653      11.588      10.135      8.6269      7.2193      6.0069      5.0319    
  4.2988      3.7946      3.5042      3.4191      3.5401      3.8783      4.4534      5.2852      6.3737      7.6767    
  9.0960      10.469      11.459      11.791      11.513      10.991      10.710      10.979      11.736      12.577    
  11.984      12.830      12.698      11.650      10.116      8.5278      7.0648      5.8246      4.8459      4.1281    
  3.6539      3.4061      3.3763      3.5667      3.9917      4.6737      5.6295      6.8448      8.2502      9.7106    
  10.920      11.426      11.048      10.052      9.0481      8.6794      9.2546      10.563      9.2471      11.275    
  12.533      12.582      11.544      9.9521      8.3145      6.8287      5.5911      4.6352      3.9546      3.5282    
  3.3380      3.3764      3.6486      4.1728      4.9729      6.0584      7.3948      8.8794      10.301      11.150    
  10.969      9.7438      7.9983      6.5884      6.2721      7.2956      5.4480      8.0551      10.625      12.198    
  12.350      11.291      9.6580      8.0031      6.5268      5.3211      4.4121      3.7876      3.4237      3.3026    
  3.4193      3.7830      4.4158      5.3405      6.5551      7.9995      9.5338      10.788      11.114      10.131    
  8.0377      5.6293      3.9718      3.8724      1.9087      4.0644      7.2351      10.182      11.903      12.039    
  10.916      9.2563      7.6142      6.1780      5.0305      4.1891      3.6357      3.3452      3.3018      3.5041    
  3.9660      4.7125      5.7628      7.0989      8.6334      10.167      11.136      10.855      9.0699      6.2170    
  3.3396      1.6451      4.9501      5.4122      7.2349      9.6334      11.608      12.435      11.966      10.598    
  8.9608      7.4034      6.0635      5.0039      4.2321      3.7286      3.4713      3.4476      3.6574      4.1141    
  4.8407      5.8544      7.1372      8.6079      10.099      11.163      11.218      10.048      8.0229      6.0046    
  5.1072      4.1706      4.8896      6.9529      9.4539      11.364      12.026      11.399      9.9678      8.3620    
  6.8735      5.6250      4.6657      3.9935      3.5855      3.4210      3.4908      3.7997      4.3653      5.2115    
  6.3489      7.7442      9.2934      10.772      11.612      11.259      9.6259      7.2482      6.9530      4.8897    
  4.1707      5.1072      7.2481      9.6258      11.259      11.612      10.772      9.2932      7.7442      6.3490    
  5.2114      4.3652      3.7998      3.4909      3.4209      3.5854      3.9935      4.6658      5.6251      6.8734    
  8.3621      9.9680      11.399      12.026      11.364      9.4540      9.6334      7.2349      5.4123      4.9503    
  6.0047      8.0227      10.048      11.218      11.163      10.099      8.6077      7.1373      5.8545      4.8407    