unknown system                          
   1.00000000000000     
    -2.450000    2.450000    1.274000
     2.450000   -2.450000    1.274000
     2.450000    2.450000   -1.274000
   Si
     2
Direct
  0.250000  0.750000  0.500000
  0.000000  0.000000  0.000000
 
   28   28   28
 -5.4742     -3.9436     0.36539E-01  4.9472      9.1072      11.409      11.668      10.490      8.8072      7.2009    
  5.8462      4.8097      4.0951      3.6803      3.5444      3.6802      4.0952      4.8099      5.8462      7.2008    
  8.8071      10.490      11.668      11.409      9.1073      4.9473     0.36457E-01 -3.9438     -3.9438     -4.7274    
 -2.5773      1.6430      6.3404      9.9607      11.638      11.415      10.016      8.3318      6.7874      5.5194    
  4.5743      3.9451      3.6078      3.5444      3.7511      4.2389      5.0297      6.1420      7.5614      9.2028    
  10.847      11.800      11.164      8.4891      4.1672     -.53684     0.36457E-01 -2.5774     -2.6271     -.10199    
  3.9712      8.0563      10.837      11.737      11.012      9.4494      7.8017      6.3438      5.1796      4.3354    
  3.7960      3.5373      3.5444      3.8171      4.3689      5.2221      6.3908      7.8496      9.4989      11.080    
  11.853      11.010      8.2638      4.1672      4.9473      1.6430     -.10203     0.44120      3.0310      6.5894    
  9.7565      11.526      11.621      10.463      8.8272      7.2463      5.8945      4.8446      4.1052      3.6553    
  3.4721      3.5445      3.8748      4.4783      5.3768      6.5789      8.0503      9.6819      11.194      11.866    
  11.010      8.4891      9.1073      6.3404      3.9712      3.0311      3.9402      6.2861      9.0509      11.138    
  11.879      11.261      9.8089      8.1853      6.6965      5.4637      4.5316      3.8948      3.5295      3.4156    
  3.5447      3.9211      4.5612      5.4850      6.6960      8.1532      9.7438      11.194      11.853      11.164    
  11.409      9.9607      8.0563      6.5895      6.2862      7.3082      9.1667      10.995      12.003      11.840    
  10.698      9.1225      7.5598      6.1819      5.0733      4.2555      3.7141      3.4249      3.3705      3.5448    
  3.9535      4.6129      5.5406      6.7358      8.1532      9.6819      11.080      11.800      11.668      11.638    
  10.837      9.7564      9.0510      9.1669      10.082      11.320      12.220      12.294      11.458      10.026    
  8.4579      6.9857      5.7288      4.7414      4.0287      3.5712      3.3464      3.3392      3.5450      3.9702    
  4.6305      5.5406      6.6960      8.0503      9.4989      10.847      10.490      11.415      11.737      11.526    
  11.138      10.995      11.320      11.987      12.595      12.706      12.093      10.862      9.3595      7.8554    
  6.4929      5.3577      4.4818      3.8603      3.4725      3.2978      3.3231      3.5450      3.9702      4.6129    
  5.4850      6.5789      7.8496      9.2028      8.8071      10.016      11.012      11.621      11.879      12.003    
  12.220      12.595      12.966      13.043      12.590      11.580      10.221      8.7596      7.3504      6.1048    
  5.0835      4.3041      3.7568      3.4221      3.2814      3.3231      3.5450      3.9535      4.5612      5.3768    
  6.3908      7.5614      7.2008      8.3317      9.4495      10.463      11.261      11.840      12.294      12.706    
  13.043      13.158      12.874      12.116      10.980      9.6482      8.2697      6.9706      5.8379      4.9156    
  4.2138      3.7220      3.4221      3.2978      3.3392      3.5448      3.9211      4.4783      5.2221      6.1420    
  5.8462      6.7874      7.8016      8.8273      9.8090      10.698      11.458      12.093      12.590      12.874    
  12.831      12.381      11.553      10.450      9.1974      7.9238      6.7353      5.7021      4.8592      4.2138    
  3.7568      3.4725      3.3464      3.3705      3.5447      3.8748      4.3689      5.0297      4.8099      5.5195    
  6.3438      7.2462      8.1852      9.1225      10.026      10.862      11.580      12.115      12.381      12.303    
  11.857      11.079      10.059      8.9098      7.7450      6.6556      5.7021      4.9156      4.3041      3.8603    
  3.5712      3.4249      3.4156      3.5445      3.8171      4.2389      4.0952      4.5744      5.1797      5.8945    
  6.6964      7.5598      8.4579      9.3595      10.221      10.980      11.553      11.857      11.828      11.452    
  10.766      9.8513      8.8110      7.7450      6.7353      5.8379      5.0835      4.4818      4.0287      3.7141    
  3.5295      3.4721      3.5444      3.7511      3.6802      3.9450      4.3355      4.8447      5.4638      6.1819    
  6.9857      7.8554      8.7596      9.6482      10.450      11.079      11.452      11.508      11.232      10.656    
  9.8513      8.9098      7.9238      6.9706      6.1048      5.3577      4.7414      4.2555      3.8948      3.6553    
  3.5373      3.5444      3.5444      3.6077      3.7959      4.1052      4.5317      5.0734      5.7288      6.4928    
  7.3504      8.2697      9.1974      10.059      10.766      11.232      11.396      11.232      10.766      10.059    
  9.1974      8.2697      7.3504      6.4929      5.7288      5.0733      4.5316      4.1052      3.7960      3.6078    
  3.6803      3.5444      3.5372      3.6551      3.8947      4.2556      4.7415      5.3577      6.1048      6.9706    
  7.9238      8.9098      9.8513      10.656      11.232      11.508      11.452      11.079      10.450      9.6482    
  8.7596      7.8554      6.9857      6.1819      5.4637      4.8446      4.3354      3.9451      4.0951      3.7512    
  3.5444      3.4721      3.5294      3.7140      4.0287      4.4819      5.0835      5.8379      6.7353      7.7450    
  8.8110      9.8513      10.766      11.452      11.828      11.857      11.553      10.980      10.221      9.3595    
  8.4579      7.5598      6.6965      5.8945      5.1796      4.5743      4.8097      4.2388      3.8171      3.5445    
  3.4156      3.4249      3.5712      3.8603      4.3041      4.9157      5.7021      6.6556      7.7450      8.9098    
  10.059      11.079      11.857      12.303      12.381      12.116      11.580      10.862      10.026      9.1225    
  8.1853      7.2463      6.3438      5.5194      5.8462      5.0295      4.3688      3.8748      3.5447      3.3706    
  3.3465      3.4725      3.7568      4.2138      4.8592      5.7021      6.7353      7.9238      9.1974      10.450    
  11.553      12.381      12.831      12.874      12.590      12.093      11.458      10.698      9.8089      8.8272    
  7.8017      6.7874      7.2009      6.1420      5.2221      4.4783      3.9211      3.5449      3.3393      3.2979    
  3.4221      3.7219      4.2138      4.9157      5.8379      6.9706      8.2697      9.6482      10.980      12.115    
  12.874      13.158      13.043      12.706      12.294      11.840      11.261      10.463      9.4494      8.3318    
  8.8072      7.5615      6.3909      5.3768      4.5612      3.9535      3.5450      3.3233      3.2815      3.4221    
  3.7568      4.3041      5.0835      6.1048      7.3504      8.7596      10.221      11.580      12.590      13.043    
  12.966      12.595      12.220      12.003      11.879      11.621      11.012      10.016      10.490      9.2027    
  7.8496      6.5790      5.4851      4.6130      3.9702      3.5451      3.3233      3.2979      3.4725      3.8603    
  4.4819      5.3577      6.4928      7.8554      9.3595      10.862      12.093      12.706      12.595      11.987    
  11.320      10.995      11.138      11.526      11.737      11.415      11.668      10.847      9.4989      8.0502    
  6.6961      5.5408      4.6306      3.9702      3.5450      3.3393      3.3465      3.5712      4.0287      4.7415    
  5.7288      6.9857      8.4579      10.026      11.458      12.294      12.220      11.320      10.082      9.1667    
  9.0509      9.7565      10.837      11.638      11.409      11.800      11.080      9.6818      8.1531      6.7359    
  5.5408      4.6130      3.9535      3.5449      3.3706      3.4249      3.7140      4.2556      5.0734      6.1819    
  7.5598      9.1225      10.698      11.840      12.003      10.995      9.1669      7.3082      6.2861      6.5894    
  8.0563      9.9607      9.1072      11.164      11.853      11.194      9.7437      8.1531      6.6961      5.4851    
  4.5612      3.9211      3.5447      3.4156      3.5294      3.8947      4.5317      5.4638      6.6964      8.1852    
  9.8090      11.261      11.879      11.138      9.0510      6.2862      3.9402      3.0310      3.9712      6.3404    
  4.9472      8.4890      11.010      11.867      11.194      9.6818      8.0502      6.5790      5.3768      4.4783    
  3.8748      3.5445      3.4721      3.6551      4.1052      4.8447      5.8945      7.2462      8.8273      10.463    
  11.621      11.526      9.7564      6.5895      3.0311     0.44120     -.10199      1.6430     0.36539E-01  4.1671    
  8.2636      11.010      11.853      11.080      9.4989      7.8496      6.3909      5.2221      4.3688      3.8171    
  3.5444      3.5372      3.7959      4.3355      5.1797      6.3438      7.8016      9.4495      11.012      11.737    
  10.837      8.0563      3.9712     -.10203     -2.6271     -2.5773     -3.9436     -.53674      4.1671      8.4890    
  11.164      11.800      10.847      9.2027      7.5615      6.1420      5.0295      4.2388      3.7512      3.5444    
  3.6077      3.9450      4.5744      5.5195      6.7874      8.3317      10.016      11.415      11.638      9.9607    
  6.3404      1.6430     -2.5774     -4.7274     -3.9433     -2.8376     0.62601      5.1041      9.0132      11.240    
  11.525      10.389      8.7178      7.1045      5.7324      4.6740      3.9352      3.4929      3.3229      3.4149    
  3.7750      4.4244      5.3888      6.6730      8.2238      9.8944      11.222      11.331      9.5718      6.0022    
  1.5525     -2.2505     -2.8378     -3.9433     -2.2504      1.5526      6.0022      9.5718      11.331      11.222    
  9.8944      8.2239      6.6732      5.3889      4.4243      3.7750      3.4150      3.3229      3.4928      3.9352    
  4.6740      5.7323      7.1043      8.7177      10.389      11.525      11.240      9.0132      5.1041     0.62593    
 0.75006     -2.1143     -2.5770     -.46832      3.3381      7.3737      10.282      11.379      10.816      9.3246    
  7.6891      6.2241      5.0448      4.1847      3.6298      3.3538      3.3390      3.5841      4.1033      4.9215    
  6.0579      7.4956      9.1465      10.790      11.752      11.204      8.7733      4.8866      5.4096      1.9064    
 -.21618     -.10182      2.1695      5.6291      8.9196      10.942      11.290      10.295      8.7122      7.1397    
  5.7797      4.7168      3.9657      3.5057      3.3117      3.3705      3.6847      4.2711      5.1542      6.3482    
  7.8262      9.4886      11.087      11.932      11.292      8.9376      9.4842      6.5701      3.8713      2.5023    
  3.0311      5.1843      7.9997      10.327      11.376      11.008      9.6813      8.0884      6.6028      5.3616    
  4.4200      3.7768      3.4076      3.2903      3.4158      3.7896      4.4298      5.3595      6.5872      8.0779    
  9.7256      11.275      12.076      11.515      11.823      10.289      8.1293      6.2726      5.5565      6.2860    
  8.0729      10.054      11.350      11.480      10.533      9.0284      7.4836      6.1046      4.9892      4.1669    
  3.6254      3.3394      3.2903      3.4724      3.8931      4.5706      5.5255      6.7608      8.2357      9.8427    
  11.344      12.169      12.170      12.121      11.161      9.7747      8.6814      8.4463      9.1666      10.422    
  11.516      11.858      11.247      9.9299      8.3925      6.9281      5.6687      4.6786      3.9678      3.5175    
  3.3039      3.3118      3.5376      3.9898      4.6856      5.6423      6.8581      8.2889      9.8301      11.278    
  11.065      12.034      12.296      11.893      11.199      10.714      10.767      11.320      11.989      12.277    
  11.862      10.761      9.3007      7.8104      6.4498      5.3143      4.4421      3.8303      3.4577      3.3030    
  3.3538      3.6081      4.0742      4.7679      5.7026      6.8725      8.2322      9.6840      9.4087      10.701    
  11.722      12.253      12.319      12.171      12.111      12.289      12.595      12.730      12.397      11.491    
  10.171      8.7211      7.3156      6.0717      5.0559      4.2884      3.7596      3.4487      3.3373      3.4150    
  3.6805      4.1419      4.8126      5.7023      6.8017      8.0666      7.7998      9.0172      10.202      11.228    
  11.948      12.357      12.587      12.785      12.978      13.043      12.782      12.067      10.945      9.6134    
  8.2345      6.9368      5.8110      4.9031      4.2229      3.7588      3.4918      3.4061      3.4927      3.7513    
  4.1891      4.8171      5.6410      6.6491      6.4229      7.4466      8.5314      9.6011      10.584      11.402    
  12.021      12.479      12.811      12.978      12.874      12.397      11.542      10.418      9.1540      7.8774    
  6.6954      5.6790      4.8615      4.2485      3.8288      3.5864      3.5072      3.5839      3.8171      4.2134    
  4.7810      5.5220      5.3518      6.1360      7.0278      7.9805      8.9400      9.8570      10.694      11.414    
  11.991      12.390      12.545      12.381      11.869      11.047      9.9994      8.8385      7.6773      6.6057    
  5.6818      4.9334      4.3652      3.9685      3.7295      3.6366      3.6844      3.8746      4.2134      4.7062    
  4.5968      5.1401      5.8053      6.5687      7.3986      8.2597      9.1184      9.9429      10.697      11.332    
  11.782      11.975      11.857      11.413      10.681      9.7430      8.7000      7.6511      6.6744      5.8212    
  5.1177      4.5705      4.1736      3.9159      3.7886      3.7891      3.9208      4.1890      4.1417      4.4590    
  4.8991      5.4502      6.0969      6.8207      7.6014      8.4161      9.2350      10.016      10.700      11.212    
  11.481      11.452      11.113      10.500      9.6835      8.7558      7.8046      6.9012      6.0941      5.4103    
  4.8588      4.4368      4.1375      3.9558      3.8927      3.9531      3.9698      4.0740      4.3003      4.6422    
  5.0911      5.6392      6.2794      7.0024      7.7917      8.6187      9.4373      10.183      10.778      11.146    
  11.232      11.019      10.531      9.8336      9.0068      8.1327      7.2788      6.4927      5.8024      5.2199    
  4.7475      4.3838      4.1296      3.9895      4.0741      3.9698      3.9894      4.1294      4.3837      4.7474    
  5.2199      5.8023      6.4926      7.2787      8.1326      9.0068      9.8336      10.531      11.018      11.232    
  11.146      10.778      10.183      9.4374      8.6188      7.7918      7.0025      6.2795      5.6392      5.0911    
  4.6422      4.3004      4.4591      4.1418      3.9531      3.8927      3.9558      4.1374      4.4368      4.8587    
  5.4103      6.0941      6.9011      7.8046      8.7558      9.6835      10.500      11.113      11.452      11.481    
  11.212      10.700      10.016      9.2351      8.4162      7.6015      6.8208      6.0969      5.4502      4.8990    
  5.1400      4.5968      4.1891      3.9208      3.7892      3.7886      3.9158      4.1735      4.5705      5.1177    
  5.8212      6.6743      7.6510      8.7000      9.7431      10.681      11.413      11.857      11.975      11.782    
  11.332      10.697      9.9430      9.1184      8.2597      7.3987      6.5688      5.8053      6.1359      5.3516    
  4.7061      4.2134      3.8746      3.6844      3.6367      3.7295      3.9684      4.3651      4.9334      5.6819    
  6.6057      7.6773      8.8386      9.9994      11.047      11.869      12.381      12.545      12.390      11.991    
  11.414      10.694      9.8570      8.9401      7.9806      7.0279      7.4466      6.4228      5.5218      4.7809    
  4.2134      3.8171      3.5840      3.5073      3.5864      3.8288      4.2485      4.8616      5.6790      6.6954    
  7.8774      9.1540      10.418      11.542      12.397      12.874      12.978      12.811      12.479      12.021    
  11.402      10.584      9.6011      8.5314      9.0172      7.7998      6.6490      5.6409      4.8170      4.1891    
  3.7513      3.4928      3.4062      3.4918      3.7587      4.2230      4.9032      5.8110      6.9368      8.2345    
  9.6135      10.945      12.067      12.782      13.043      12.978      12.785      12.587      12.357      11.948    
  11.228      10.201      10.701      9.4086      8.0665      6.8017      5.7023      4.8126      4.1418      3.6805    
  3.4150      3.3374      3.4487      3.7596      4.2885      5.0560      6.0717      7.3156      8.7212      10.171    
  11.491      12.397      12.730      12.595      12.289      12.111      12.171      12.320      12.253      11.722    
  12.034      11.065      9.6839      8.2321      6.8724      5.7027      4.7679      4.0742      3.6081      3.3539    
  3.3030      3.4576      3.8303      4.4422      5.3144      6.4498      7.8104      9.3008      10.762      11.862    
  12.277      11.989      11.320      10.767      10.714      11.199      11.893      12.296      12.121      12.170    
  11.278      9.8299      8.2888      6.8582      5.6424      4.6856      3.9897      3.5376      3.3118      3.3039    
  3.5175      3.9679      4.6787      5.6687      6.9281      8.3926      9.9301      11.247      11.858      11.517    
  10.422      9.1666      8.4461      8.6814      9.7747      11.161      10.289      11.823      12.169      11.344    
  9.8426      8.2356      6.7609      5.5256      4.5706      3.8931      3.4725      3.2903      3.3393      3.6254    
  4.1671      4.9893      6.1046      7.4836      9.0285      10.534      11.480      11.350      10.054      8.0730    
  6.2860      5.5564      6.2725      8.1293      6.5700      9.4841      11.515      12.077      11.275      9.7255    
  8.0779      6.5874      5.3596      4.4298      3.7896      3.4158      3.2903      3.4075      3.7768      4.4201    
  5.3617      6.6027      8.0884      9.6815      11.008      11.375      10.327      7.9998      5.1844      3.0312    
  2.5024      3.8713      1.9065      5.4094      8.9374      11.292      11.932      11.087      9.4886      7.8263    
  6.3484      5.1543      4.2711      3.6848      3.3706      3.3117      3.5057      3.9658      4.7170      5.7797    
  7.1396      8.7123      10.296      11.290      10.941      8.9195      5.6292      2.1696     -.10173     -.21603    
 -2.1141     0.75016      4.8864      8.7731      11.204      11.752      10.790      9.1466      7.4957      6.0580    
  4.9215      4.1033      3.5842      3.3391      3.3537      3.6298      4.1848      5.0448      6.2240      7.6890    
  9.3247      10.816      11.379      10.281      7.3737      3.3381     -.46833     -2.5769     0.37461E-01 0.75075    
  3.4142      6.9503      10.027      11.679      11.666      10.437      8.7714      7.1714      5.8031      4.7366    
  3.9789      3.5075      3.2979      3.3374      3.6295      4.1925      5.0527      6.2225      7.6662      9.2690    
  10.739      11.359      10.484      8.0208      4.6338      1.5531     0.62655     -.53572     0.62665      3.6246    
  7.2456      10.159      11.517      11.237      9.8808      8.2327      6.6996      5.4216      4.4526      3.7893    
  3.4064      3.2814      3.4063      3.7893      4.4526      5.4216      6.6995      8.2327      9.8809      11.237    
  11.517      10.159      7.2457      3.6246      3.4141     0.75067     0.37501E-01  1.5531      4.6338      8.0208    
  10.484      11.359      10.739      9.2689      7.6663      6.2226      5.0527      4.1924      3.6295      3.3375    
  3.2978      3.5074      3.9789      4.7366      5.8031      7.1713      8.7714      10.437      11.666      11.679    
  10.027      6.9503      7.2325      4.0622      1.9069      1.6437      3.3384      6.2158      9.0687      10.854    
  11.135      10.166      8.6324      7.0986      5.7629      4.7130      3.9668      3.5052      3.3031      3.3464    
  3.6368      4.1903      5.0315      6.1783      7.6139      9.2551      10.914      12.036      11.900      10.179    
  10.622      8.0530      5.4466      3.8716      3.9716      5.6292      8.0376      10.131      11.114      10.787    
  9.5328      7.9988      6.5549      5.3407      4.4162      3.7838      3.4205      3.3039      3.4249      3.7888    
  4.4134      5.3220      6.5271      8.0027      9.6568      11.289      12.347      12.195      12.530      11.273    
  9.2458      7.2951      6.2726      6.5894      7.9995      9.7449      10.970      11.150      10.300      8.8787    
  7.3943      6.0583      4.9730      4.1732      3.6494      3.3775      3.3392      3.5295      3.9560      4.6365    
  5.5920      6.8291      8.3142      9.9508      11.542      12.579      12.696      12.827      11.983      10.562    
  9.2553      8.6812      9.0505      10.054      11.050      11.427      10.921      9.7105      8.2498      6.8445    
  5.6294      4.6738      3.9921      3.5675      3.3774      3.4074      3.6553      4.1295      4.8471      5.8254    
  7.0652      8.5275      10.115      11.648      11.586      12.651      12.991      12.577      11.736      10.981    
  10.713      10.995      11.516      11.794      11.461      10.470      9.0961      7.6764      6.3735      5.2851    
  4.4535      3.8787      3.5410      3.4202      3.5055      3.7960      4.3003      5.0331      6.0078      7.2197    
  8.6266      10.134      10.001      11.346      12.410      12.936      12.904      12.549      12.210      12.111    
  12.220      12.277      11.971      11.145      9.9060      8.5272      7.1874      6.0017      5.0383      4.3195    
  3.8370      3.5711      3.5049      3.6296      3.9451      4.4589      5.1834      6.1273      7.2815      8.6022    
  8.4531      9.7194      10.935      11.960      12.617      12.877      12.881      12.819      12.784      12.705    
  12.397      11.706      10.635      9.3586      8.0429      6.8091      5.7457      4.8982      4.2765      3.8691    
  3.6581      3.6291      3.7747      4.0952      4.5967      5.2889      6.1761      7.2454      7.1125      8.1871    
  9.3062      10.383      11.328      12.046      12.495      12.731      12.832      12.811      12.590      12.067    
  11.210      10.111      8.8941      7.6777      6.5629      5.6169      4.8704      4.3271      3.9756      3.8004    
  3.7889      3.9349      4.2388      4.7061      5.3434      6.1508      6.0527      6.8906      7.8208      8.7880    
  9.7272      10.577      11.292      11.836      12.204      12.400      12.390      12.115      11.542      10.702    
  9.6735      8.5575      7.4597      6.4639      5.6222      4.9575      4.4716      4.1549      3.9942      3.9785    
  4.1029      4.3688      4.7810      5.3435      5.2893      5.8874      6.5937      7.3777      8.1993      9.0136    
  9.7796      10.464      11.041      11.481      11.744      11.782      11.553      11.047      10.297      9.3775    
  8.3840      7.4084      6.5208      5.7644      5.1590      4.7075      4.4025      4.2329      4.1899      4.2707    
  4.4782      4.8173      4.8129      5.1839      5.6653      6.2403      6.8868      7.5787      8.2888      8.9904    
  9.6569      10.258      10.753      11.090      11.212      11.079      10.681      10.053      9.2626      8.3964    
  7.5339      6.7362      6.0422      5.4715      5.0291      4.7104      4.5070      4.4132      4.4295      4.5612    
  4.6129      4.7682      5.0337      5.3996      5.8525      6.3786      6.9647      7.5966      8.2574      8.9234    
  9.5610      10.123      10.549      10.778      10.766      10.500      10.008      9.3505      8.6031      7.8364    
  7.1061      6.4493      5.8868      5.4261      5.0662      4.8033      4.6366      4.5706      4.6858      4.6306    
  4.6858      4.8475      5.1066      5.4536      5.8830      6.3914      6.9741      7.6196      8.3062      8.9981    
  9.6432      10.177      10.531      10.656      10.531      10.177      9.6431      8.9981      8.3063      7.6196    
  6.9740      6.3914      5.8830      5.4536      5.1065      4.8475      5.0337      4.7682      4.6130      4.5707    
  4.6367      4.8034      5.0662      5.4261      5.8868      6.4494      7.1061      7.8364      8.6031      9.3506    
  10.008      10.500      10.766      10.778      10.549      10.123      9.5610      8.9235      8.2574      7.5966    
  6.9646      6.3786      5.8525      5.3996      5.6652      5.1840      4.8130      4.5612      4.4296      4.4133    
  4.5070      4.7103      5.0291      5.4715      6.0422      6.7362      7.5338      8.3964      9.2627      10.053    
  10.681      11.079      11.212      11.090      10.753      10.258      9.6570      8.9904      8.2888      7.5787    
  6.8868      6.2403      6.5937      5.8875      5.2894      4.8174      4.4783      4.2708      4.1900      4.2330    
  4.4024      4.7075      5.1591      5.7645      6.5208      7.4084      8.3840      9.3775      10.297      11.047    
  11.553      11.782      11.744      11.481      11.041      10.464      9.7796      9.0136      8.1993      7.3778    
  7.8208      6.8906      6.0527      5.3436      4.7811      4.3687      4.1029      3.9785      3.9942      4.1548    
  4.4715      4.9575      5.6222      6.4638      7.4597      8.5575      9.6735      10.702      11.542      12.115    
  12.390      12.400      12.204      11.836      11.292      10.577      9.7272      8.7881      9.3063      8.1872    
  7.1125      6.1509      5.3435      4.7061      4.2387      3.9349      3.7889      3.8003      3.9755      4.3271    
  4.8705      5.6169      6.5629      7.6777      8.8941      10.111      11.210      12.067      12.590      12.811    
  12.832      12.731      12.495      12.046      11.328      10.383      10.935      9.7194      8.4531      7.2454    
  6.1762      5.2889      4.5966      4.0950      3.7747      3.6291      3.6580      3.8690      4.2766      4.8983    
  5.7456      6.8091      8.0430      9.3586      10.634      11.706      12.397      12.705      12.784      12.819    
  12.881      12.877      12.617      11.960      12.410      11.346      10.001      8.6021      7.2815      6.1274    
  5.1834      4.4588      3.9450      3.6295      3.5049      3.5710      3.8369      4.3195      5.0383      6.0017    
  7.1874      8.5273      9.9061      11.145      11.971      12.277      12.220      12.111      12.210      12.549    
  12.904      12.936      12.991      12.651      11.586      10.134      8.6265      7.2197      6.0078      5.0331    
  4.3002      3.7960      3.5055      3.4202      3.5409      3.8787      4.4536      5.2851      6.3734      7.6764    
  9.0962      10.470      11.461      11.794      11.516      10.995      10.713      10.981      11.736      12.577    
  11.983      12.827      12.696      11.648      10.115      8.5274      7.0652      5.8254      4.8471      4.1295    
  3.6553      3.4075      3.3774      3.5675      3.9922      4.6739      5.6294      6.8445      8.2498      9.7105    
  10.921      11.427      11.050      10.054      9.0504      8.6812      9.2554      10.562      9.2458      11.273    
  12.530      12.579      11.542      9.9507      8.3141      6.8291      5.5920      4.6364      3.9560      3.5296    
  3.3393      3.3775      3.6494      4.1733      4.9731      6.0583      7.3943      8.8788      10.300      11.150    
  10.970      9.7451      7.9996      6.5893      6.2725      7.2952      5.4466      8.0530      10.622      12.195    
  12.347      11.289      9.6567      8.0027      6.5272      5.3220      4.4133      3.7889      3.4251      3.3039    
  3.4204      3.7839      4.4163      5.3407      6.5548      7.9988      9.5329      10.787      11.114      10.131    
  8.0377      5.6293      3.9715      3.8716      1.9070      4.0623      7.2324      10.179      11.900      12.036    
  10.914      9.2551      7.6139      6.1784      5.0314      4.1903      3.6370      3.3466      3.3031      3.5052    
  3.9669      4.7130      5.7629      7.0985      8.6325      10.166      11.134      10.853      9.0687      6.2159    
  3.3384      1.6437      4.9479      5.4098      7.2323      9.6304      11.605      12.432      11.964      10.596    
  8.9599      7.4032      6.0638      5.0046      4.2330      3.7296      3.4724      3.4486      3.6582      4.1147    
  4.8411      5.8544      7.1367      8.6068      10.097      11.161      11.216      10.046      8.0208      6.0026    
  5.1046      4.1680      4.8870      6.9501      9.4510      11.361      12.023      11.397      9.9662      8.3612    
  6.8734      5.6254      4.6663      3.9943      3.5865      3.4220      3.4918      3.8006      4.3659      5.2118    
  6.3488      7.7436      9.2921      10.770      11.609      11.256      9.6232      7.2456      6.9501      4.8870    
  4.1681      5.1046      7.2455      9.6231      11.256      11.609      10.770      9.2919      7.7436      6.3489    
  5.2118      4.3658      3.8006      3.4919      3.4220      3.5864      3.9944      4.6665      5.6254      6.8733    
  8.3613      9.9664      11.397      12.023      11.361      9.4510      9.6304      7.2322      5.4099      4.9481    
  6.0026      8.0207      10.046      11.216      11.162      10.097      8.6067      7.1368      5.8545      4.8411    