unknown system                          
   1.00000000000000     
    -2.450000    2.450000    1.274000
     2.450000   -2.450000    1.274000
     2.450000    2.450000   -1.274000
   Si
     2
Direct
  0.250000  0.750000  0.500000
  0.000000  0.000000  0.000000
 
   28   28   28
 -.54741571811E+01 -.39436034207E+01 0.36539086882E-01 0.49471910598E+01 0.91072019080E+01
 0.11408834566E+02 0.11667926779E+02 0.10490034317E+02 0.88071528535E+01 0.72009274295E+01
 0.58461595099E+01 0.48096919621E+01 0.40951287173E+01 0.36802552557E+01 0.35444129335E+01
 0.36801626333E+01 0.40951637233E+01 0.48098530484E+01 0.58462132767E+01 0.72008452067E+01
 0.88071357439E+01 0.10490107122E+02 0.11667926802E+02 0.11408786948E+02 0.91072754426E+01
 0.49473042809E+01 0.36456727835E-01 -.39438007819E+01 -.39438007819E+01 -.47273760327E+01
 -.25772692908E+01 0.16429950517E+01 0.63403821991E+01 0.99606839088E+01 0.11637740146E+02
 0.11415000603E+02 0.10016242244E+02 0.83317590528E+01 0.67874451821E+01 0.55194345584E+01
 0.45742672297E+01 0.39450806602E+01 0.36077958942E+01 0.35444164448E+01 0.37511415928E+01
 0.42389016590E+01 0.50296746787E+01 0.61420459149E+01 0.75614201610E+01 0.92027782223E+01
 0.10846673391E+02 0.11799529373E+02 0.11164279929E+02 0.84891319632E+01 0.41672131951E+01
 -.53684015821E+00 0.36456727835E-01 -.25774091732E+01 -.26270662243E+01 -.10198612185E+00
 0.39711723342E+01 0.80563482298E+01 0.10836698559E+02 0.11736752651E+02 0.11012146051E+02
 0.94494007020E+01 0.78017373503E+01 0.63438221164E+01 0.51795941011E+01 0.43354449072E+01
 0.37960490633E+01 0.35372840294E+01 0.35444428669E+01 0.38171371425E+01 0.43689153662E+01
 0.52221428293E+01 0.63908239799E+01 0.78496013312E+01 0.94989417649E+01 0.11080035776E+02
 0.11853256325E+02 0.11010328716E+02 0.82637550673E+01 0.41672131951E+01 0.49473042809E+01
 0.16429589733E+01 -.10203499387E+00 0.44120005302E+00 0.30310478428E+01 0.65894448488E+01
 0.97564783363E+01 0.11526129958E+02 0.11620667154E+02 0.10462591530E+02 0.88272389933E+01
 0.72463333448E+01 0.58945336880E+01 0.48446469719E+01 0.41052211283E+01 0.36552625023E+01
 0.34721460192E+01 0.35445177775E+01 0.38748104134E+01 0.44783453980E+01 0.53767661155E+01
 0.65789118823E+01 0.80502579894E+01 0.96819233926E+01 0.11194239061E+02 0.11866330376E+02
 0.11010328716E+02 0.84891319632E+01 0.91072754426E+01 0.63404354879E+01 0.39711887082E+01
 0.30310885587E+01 0.39402466965E+01 0.62860712301E+01 0.90508978217E+01 0.11137943786E+02
 0.11878951386E+02 0.11261329523E+02 0.98088674168E+01 0.81852754922E+01 0.66964761500E+01
 0.54637363820E+01 0.45316295834E+01 0.38947948933E+01 0.35295212690E+01 0.34156163962E+01
 0.35446503703E+01 0.39211168200E+01 0.45612234655E+01 0.54849587168E+01 0.66960271525E+01
 0.81531561118E+01 0.97437793760E+01 0.11194239061E+02 0.11853256325E+02 0.11164279929E+02
 0.11408786948E+02 0.99606684204E+01 0.80563363430E+01 0.65894983706E+01 0.62861714531E+01
 0.73081601350E+01 0.91667347406E+01 0.10995290546E+02 0.12002883645E+02 0.11840262715E+02
 0.10697767328E+02 0.91224916152E+01 0.75598493981E+01 0.61819423364E+01 0.50733122275E+01
 0.42555449409E+01 0.37140589898E+01 0.34248977917E+01 0.33705455081E+01 0.35448137451E+01
 0.39535185457E+01 0.46129134170E+01 0.55406333847E+01 0.67357866274E+01 0.81531561118E+01
 0.96819233926E+01 0.11080035776E+02 0.11799529373E+02 0.11667926802E+02 0.11637711345E+02
 0.10836613679E+02 0.97564148552E+01 0.90509627403E+01 0.91668531921E+01 0.10082341771E+02
 0.11320241241E+02 0.12220272092E+02 0.12294437212E+02 0.11457851770E+02 0.10026183143E+02
 0.84578603185E+01 0.69857073771E+01 0.57287923048E+01 0.47414212726E+01 0.40286746487E+01
 0.35712098049E+01 0.33464218805E+01 0.33392031259E+01 0.35449509883E+01 0.39701942739E+01
 0.46304783944E+01 0.55406333847E+01 0.66960271525E+01 0.80502579894E+01 0.94989417649E+01
 0.10846673391E+02 0.10490107122E+02 0.11415083984E+02 0.11736751847E+02 0.11526015520E+02
 0.11137854311E+02 0.10995344138E+02 0.11320343034E+02 0.11987293979E+02 0.12595156263E+02
 0.12705574347E+02 0.12093196890E+02 0.10861827652E+02 0.93594571041E+01 0.78554216853E+01
 0.64928816629E+01 0.53577108395E+01 0.44818399471E+01 0.38603154999E+01 0.34724952128E+01
 0.32978209777E+01 0.33231419697E+01 0.35450047500E+01 0.39701942739E+01 0.46129134170E+01
 0.54849587168E+01 0.65789118823E+01 0.78496013312E+01 0.92027782223E+01 0.88071357439E+01
 0.10016324243E+02 0.11012275339E+02 0.11620695799E+02 0.11878847782E+02 0.12002795483E+02
 0.12220302664E+02 0.12595222541E+02 0.12966479054E+02 0.13043267112E+02 0.12590101418E+02
 0.11580282302E+02 0.10221254239E+02 0.87595791852E+01 0.73504416784E+01 0.61048134697E+01
 0.50835149083E+01 0.43040550826E+01 0.37568475377E+01 0.34220951155E+01 0.32813671759E+01
 0.33231419697E+01 0.35449509883E+01 0.39535185457E+01 0.45612234655E+01 0.53767661155E+01
 0.63908239799E+01 0.75614201610E+01 0.72008452067E+01 0.83316919248E+01 0.94494580979E+01
 0.10462722603E+02 0.11261379472E+02 0.11840195791E+02 0.12294370164E+02 0.12705581565E+02
 0.13043295458E+02 0.13158071534E+02 0.12873994775E+02 0.12115502619E+02 0.10979834675E+02
 0.96482019382E+01 0.82696975652E+01 0.69706274777E+01 0.58379019895E+01 0.49156487626E+01
 0.42138251610E+01 0.37219576381E+01 0.34220951155E+01 0.32978209777E+01 0.33392031259E+01
 0.35448137451E+01 0.39211168200E+01 0.44783453980E+01 0.52221428293E+01 0.61420459149E+01
 0.58462132767E+01 0.67873661834E+01 0.78016401131E+01 0.88272535436E+01 0.98089663074E+01
 0.10697824539E+02 0.11457827816E+02 0.12093158821E+02 0.12590092070E+02 0.12873993969E+02
 0.12830763744E+02 0.12381448378E+02 0.11553194065E+02 0.10450112023E+02 0.91973830057E+01
 0.79238083656E+01 0.67352996625E+01 0.57021357946E+01 0.48591707268E+01 0.42138251610E+01
 0.37568475377E+01 0.34724952128E+01 0.33464218805E+01 0.33705455081E+01 0.35446503703E+01
 0.38748104134E+01 0.43689153662E+01 0.50296746787E+01 0.48098530484E+01 0.55195225608E+01
 0.63437716707E+01 0.72462341263E+01 0.81852495252E+01 0.91225436142E+01 0.10026233789E+02
 0.10861837403E+02 0.11580270407E+02 0.12115485875E+02 0.12381431693E+02 0.12302717827E+02
 0.11856530414E+02 0.11079268184E+02 0.10058800943E+02 0.89097527080E+01 0.77450436514E+01
 0.66556449292E+01 0.57021357946E+01 0.49156487626E+01 0.43040550826E+01 0.38603154999E+01
 0.35712098049E+01 0.34248977917E+01 0.34156163962E+01 0.35445177775E+01 0.38171371425E+01
 0.42389016590E+01 0.40951637233E+01 0.45743866867E+01 0.51796900537E+01 0.58945228907E+01
 0.66963995477E+01 0.75597998068E+01 0.84578692176E+01 0.93594919839E+01 0.10221281140E+02
 0.10979840412E+02 0.11553178078E+02 0.11856509835E+02 0.11827995922E+02 0.11451728037E+02
 0.10765692232E+02 0.98512769593E+01 0.88109655314E+01 0.77450436514E+01 0.67352996625E+01
 0.58379019895E+01 0.50835149083E+01 0.44818399471E+01 0.40286746487E+01 0.37140589898E+01
 0.35295212690E+01 0.34721460192E+01 0.35444428669E+01 0.37511415928E+01 0.36801626333E+01
 0.39450248478E+01 0.43354878689E+01 0.48447250602E+01 0.54637598453E+01 0.61819008222E+01
 0.69856550474E+01 0.78554020652E+01 0.87595946972E+01 0.96482301847E+01 0.10450126441E+02
 0.11079257871E+02 0.11451710427E+02 0.11508182330E+02 0.11232283584E+02 0.10656141441E+02
 0.98512769593E+01 0.89097527080E+01 0.79238083656E+01 0.69706274777E+01 0.61048134697E+01
 0.53577108395E+01 0.47414212726E+01 0.42555449409E+01 0.38947948933E+01 0.36552625023E+01
 0.35372840294E+01 0.35444164448E+01 0.35444129335E+01 0.36076703211E+01 0.37959193332E+01
 0.41051874938E+01 0.45316747055E+01 0.50733540366E+01 0.57287852865E+01 0.64928427790E+01
 0.73504095730E+01 0.82696945352E+01 0.91974029880E+01 0.10058818003E+02 0.10765688061E+02
 0.11232269573E+02 0.11395548999E+02 0.11232283584E+02 0.10765692232E+02 0.10058800943E+02
 0.91973830057E+01 0.82696975652E+01 0.73504416784E+01 0.64928816629E+01 0.57287923048E+01
 0.50733122275E+01 0.45316295834E+01 0.41052211283E+01 0.37960490633E+01 0.36077958942E+01
 0.36802552557E+01 0.35444193000E+01 0.35371605517E+01 0.36551069182E+01 0.38947155983E+01
 0.42555568531E+01 0.47414645074E+01 0.53577298159E+01 0.61047954385E+01 0.69705939108E+01
 0.79237907981E+01 0.89097630724E+01 0.98512942061E+01 0.10656139864E+02 0.11232269573E+02
 0.11508182330E+02 0.11451728037E+02 0.11079268184E+02 0.10450112023E+02 0.96482019382E+01
 0.87595791852E+01 0.78554216853E+01 0.69857073771E+01 0.61819423364E+01 0.54637363820E+01
 0.48446469719E+01 0.43354449072E+01 0.39450806602E+01 0.40951287173E+01 0.37511809555E+01
 0.35444494715E+01 0.34720619139E+01 0.35293982928E+01 0.37139783972E+01 0.40286641266E+01
 0.44818739369E+01 0.50835497631E+01 0.58379033912E+01 0.67352687395E+01 0.77450180304E+01
 0.88109717998E+01 0.98512942061E+01 0.10765688061E+02 0.11451710427E+02 0.11827995922E+02
 0.11856530414E+02 0.11553194065E+02 0.10979834675E+02 0.10221254239E+02 0.93594571041E+01
 0.84578603185E+01 0.75598493981E+01 0.66964761500E+01 0.58945336880E+01 0.51795941011E+01
 0.45742672297E+01 0.48096919621E+01 0.42387978462E+01 0.38171252716E+01 0.35445314306E+01
 0.34155993054E+01 0.34248525323E+01 0.35711637704E+01 0.38602958047E+01 0.43040775360E+01
 0.49156914371E+01 0.57021486223E+01 0.66556155131E+01 0.77450180304E+01 0.89097630724E+01
 0.10058818003E+02 0.11079257871E+02 0.11856509835E+02 0.12302717827E+02 0.12381448378E+02
 0.12115502619E+02 0.11580282302E+02 0.10861827652E+02 0.10026183143E+02 0.91224916152E+01
 0.81852754922E+01 0.72463333448E+01 0.63438221164E+01 0.55194345584E+01 0.58461595099E+01
 0.50295288325E+01 0.43687935563E+01 0.38747690446E+01 0.35446767065E+01 0.33706054533E+01
 0.33464693052E+01 0.34724956298E+01 0.37568270408E+01 0.42138402575E+01 0.48592156677E+01
 0.57021486223E+01 0.67352687395E+01 0.79237907981E+01 0.91974029880E+01 0.10450126441E+02
 0.11553178078E+02 0.12381431693E+02 0.12830763744E+02 0.12873994775E+02 0.12590101418E+02
 0.12093196890E+02 0.11457851770E+02 0.10697767328E+02 0.98088674168E+01 0.88272389933E+01
 0.78017373503E+01 0.67874451821E+01 0.72009274295E+01 0.61420426950E+01 0.52220678316E+01
 0.44782610045E+01 0.39210742566E+01 0.35448571456E+01 0.33393297023E+01 0.32979416656E+01
 0.34221272230E+01 0.37219378922E+01 0.42138402575E+01 0.49156914371E+01 0.58379033912E+01
 0.69705939108E+01 0.82696945352E+01 0.96482301847E+01 0.10979840412E+02 0.12115485875E+02
 0.12873993969E+02 0.13158071534E+02 0.13043267112E+02 0.12705574347E+02 0.12294437212E+02
 0.11840262715E+02 0.11261329523E+02 0.10462591530E+02 0.94494007020E+01 0.83317590528E+01
 0.88071528535E+01 0.75614762394E+01 0.63908728100E+01 0.53767936090E+01 0.45612097415E+01
 0.39534930864E+01 0.35450097776E+01 0.33233070135E+01 0.32815155092E+01 0.34221272230E+01
 0.37568270408E+01 0.43040775360E+01 0.50835497631E+01 0.61047954385E+01 0.73504095730E+01
 0.87595946972E+01 0.10221281140E+02 0.11580270407E+02 0.12590092070E+02 0.13043295458E+02
 0.12966479054E+02 0.12595156263E+02 0.12220272092E+02 0.12002883645E+02 0.11878951386E+02
 0.11620667154E+02 0.11012146051E+02 0.10016242244E+02 0.10490034317E+02 0.92027409474E+01
 0.78496109230E+01 0.65790019975E+01 0.54850840957E+01 0.46129656553E+01 0.39701848697E+01
 0.35450697918E+01 0.33233070135E+01 0.32979416656E+01 0.34724956298E+01 0.38602958047E+01
 0.44818739369E+01 0.53577298159E+01 0.64928427790E+01 0.78554020652E+01 0.93594919839E+01
 0.10861837403E+02 0.12093158821E+02 0.12705581565E+02 0.12595222541E+02 0.11987293979E+02
 0.11320241241E+02 0.10995290546E+02 0.11137943786E+02 0.11526129958E+02 0.11736752651E+02
 0.11415000603E+02 0.11667926779E+02 0.10846642730E+02 0.94988600437E+01 0.80502191914E+01
 0.66961421450E+01 0.55408178294E+01 0.46305572439E+01 0.39701848697E+01 0.35450097776E+01
 0.33393297023E+01 0.33464693052E+01 0.35711637704E+01 0.40286641266E+01 0.47414645074E+01
 0.57287852865E+01 0.69856550474E+01 0.84578692176E+01 0.10026233789E+02 0.11457827816E+02
 0.12294370164E+02 0.12220302664E+02 0.11320343034E+02 0.10082341771E+02 0.91667347406E+01
 0.90508978217E+01 0.97564783363E+01 0.10836698559E+02 0.11637740146E+02 0.11408834566E+02
 0.11799626169E+02 0.11080060079E+02 0.96818144576E+01 0.81530868220E+01 0.67359097061E+01
 0.55408178294E+01 0.46129656553E+01 0.39534930864E+01 0.35448571456E+01 0.33706054533E+01
 0.34248525323E+01 0.37139783972E+01 0.42555568531E+01 0.50733540366E+01 0.61819008222E+01
 0.75597998068E+01 0.91225436142E+01 0.10697824539E+02 0.11840195791E+02 0.12002795483E+02
 0.10995344138E+02 0.91668531921E+01 0.73081601350E+01 0.62860712301E+01 0.65894448488E+01
 0.80563482298E+01 0.99606839088E+01 0.91072019080E+01 0.11164335738E+02 0.11853430396E+02
 0.11194301596E+02 0.97436615341E+01 0.81530868220E+01 0.66961421450E+01 0.54850840957E+01
 0.45612097415E+01 0.39210742566E+01 0.35446767065E+01 0.34155993054E+01 0.35293982928E+01
 0.38947155983E+01 0.45316747055E+01 0.54637598453E+01 0.66963995477E+01 0.81852495252E+01
 0.98089663074E+01 0.11261379472E+02 0.11878847782E+02 0.11137854311E+02 0.90509627403E+01
 0.62861714531E+01 0.39402466965E+01 0.30310478428E+01 0.39711723342E+01 0.63403821991E+01
 0.49471910598E+01 0.84889834755E+01 0.11010386309E+02 0.11866533900E+02 0.11194301596E+02
 0.96818144576E+01 0.80502191914E+01 0.65790019975E+01 0.53767936090E+01 0.44782610045E+01
 0.38747690446E+01 0.35445314306E+01 0.34720619139E+01 0.36551069182E+01 0.41051874938E+01
 0.48447250602E+01 0.58945228907E+01 0.72462341263E+01 0.88272535436E+01 0.10462722603E+02
 0.11620695799E+02 0.11526015520E+02 0.97564148552E+01 0.65894983706E+01 0.30310885587E+01
 0.44120005302E+00 -.10198612185E+00 0.16429950517E+01 0.36539086882E-01 0.41670641498E+01
 0.82635772948E+01 0.11010386309E+02 0.11853430396E+02 0.11080060079E+02 0.94988600437E+01
 0.78496109230E+01 0.63908728100E+01 0.52220678316E+01 0.43687935563E+01 0.38171252716E+01
 0.35444494715E+01 0.35371605517E+01 0.37959193332E+01 0.43354878689E+01 0.51796900537E+01
 0.63437716707E+01 0.78016401131E+01 0.94494580979E+01 0.11012275339E+02 0.11736751847E+02
 0.10836613679E+02 0.80563363430E+01 0.39711887082E+01 -.10203499387E+00 -.26270662243E+01
 -.25772692908E+01 -.39436034207E+01 -.53673934123E+00 0.41670641498E+01 0.84889834755E+01
 0.11164335738E+02 0.11799626169E+02 0.10846642730E+02 0.92027409474E+01 0.75614762394E+01
 0.61420426950E+01 0.50295288325E+01 0.42387978462E+01 0.37511809555E+01 0.35444193000E+01
 0.36076703211E+01 0.39450248478E+01 0.45743866867E+01 0.55195225608E+01 0.67873661834E+01
 0.83316919248E+01 0.10016324243E+02 0.11415083984E+02 0.11637711345E+02 0.99606684204E+01
 0.63404354879E+01 0.16429589733E+01 -.25774091732E+01 -.47273760327E+01 -.39432657016E+01
 -.28376295870E+01 0.62601250692E+00 0.51040610291E+01 0.90131520575E+01 0.11239782117E+02
 0.11524845162E+02 0.10389156109E+02 0.87177962796E+01 0.71044509196E+01 0.57324231383E+01
 0.46739521396E+01 0.39352193441E+01 0.34928726849E+01 0.33229340481E+01 0.34148860843E+01
 0.37749912347E+01 0.44244124553E+01 0.53888331493E+01 0.66729990557E+01 0.82237753381E+01
 0.98943922505E+01 0.11222429877E+02 0.11330654388E+02 0.95717574900E+01 0.60022246433E+01
 0.15525417713E+01 -.22505446422E+01 -.28378093818E+01 -.39433003727E+01 -.22504459024E+01
 0.15525713804E+01 0.60021987494E+01 0.95718498413E+01 0.11330824212E+02 0.11222494560E+02
 0.98943926303E+01 0.82238872323E+01 0.66731637869E+01 0.53888528235E+01 0.44243288719E+01
 0.37749987325E+01 0.34149560544E+01 0.33228947380E+01 0.34927678417E+01 0.39352164965E+01
 0.46739893818E+01 0.57323166822E+01 0.71042571009E+01 0.87177022997E+01 0.10389118635E+02
 0.11524706326E+02 0.11239626834E+02 0.90131655743E+01 0.51041443880E+01 0.62593293724E+00
 0.75005663307E+00 -.21142705753E+01 -.25770237209E+01 -.46832192594E+00 0.33380654511E+01
 0.73736873878E+01 0.10281527609E+02 0.11379125538E+02 0.10816216162E+02 0.93246470441E+01
 0.76890860246E+01 0.62240562182E+01 0.50447787520E+01 0.41846631176E+01 0.36298061365E+01
 0.33537598364E+01 0.33390289869E+01 0.35841087855E+01 0.41032982496E+01 0.49215031792E+01
 0.60578824739E+01 0.74955686401E+01 0.91465040776E+01 0.10789714260E+02 0.11751925173E+02
 0.11204264091E+02 0.87732526452E+01 0.48865592316E+01 0.54095583724E+01 0.19064239361E+01
 -.21618489076E+00 -.10181559511E+00 0.21695140618E+01 0.56291330743E+01 0.89195724222E+01
 0.10941506111E+02 0.11290345342E+02 0.10295460918E+02 0.87122293132E+01 0.71396802044E+01
 0.57796674284E+01 0.47168266366E+01 0.39657250596E+01 0.35056891749E+01 0.33116816730E+01
 0.33705248821E+01 0.36847068454E+01 0.42710753850E+01 0.51542378779E+01 0.63482363315E+01
 0.78262247729E+01 0.94886157243E+01 0.11087272122E+02 0.11932317274E+02 0.11291985623E+02
 0.89376123434E+01 0.94842308305E+01 0.65701093689E+01 0.38713147509E+01 0.25023271343E+01
 0.30311226104E+01 0.51842679332E+01 0.79997078646E+01 0.10327467094E+02 0.11375552691E+02
 0.11007781511E+02 0.96813466696E+01 0.80883853307E+01 0.66027844338E+01 0.53615998514E+01
 0.44199705169E+01 0.37767530416E+01 0.34075838081E+01 0.32902792922E+01 0.34157682680E+01
 0.37895510425E+01 0.44297820111E+01 0.53594993481E+01 0.65872099104E+01 0.80779267750E+01
 0.97255918342E+01 0.11275239808E+02 0.12076435340E+02 0.11514770950E+02 0.11823267035E+02
 0.10289072086E+02 0.81293451435E+01 0.62725561803E+01 0.55564933394E+01 0.62860364957E+01
 0.80728944626E+01 0.10054384426E+02 0.11349597091E+02 0.11479760684E+02 0.10533421369E+02
 0.90283725614E+01 0.74835577418E+01 0.61046273161E+01 0.49892120820E+01 0.41669214661E+01
 0.36253534285E+01 0.33393771603E+01 0.32903150489E+01 0.34724329533E+01 0.38931158375E+01
 0.45706470579E+01 0.55255048403E+01 0.67607900008E+01 0.82357054933E+01 0.98427185732E+01
 0.11343594025E+02 0.12168603488E+02 0.12170195385E+02 0.12121304320E+02 0.11160634187E+02
 0.97746865501E+01 0.86814452377E+01 0.84462645610E+01 0.91666012835E+01 0.10421935511E+02
 0.11516465741E+02 0.11857878998E+02 0.11246844366E+02 0.99299486865E+01 0.83924649383E+01
 0.69281232501E+01 0.56687039896E+01 0.46785984023E+01 0.39678290683E+01 0.35175186469E+01
 0.33039313764E+01 0.33117706822E+01 0.35376380780E+01 0.39897769793E+01 0.46855900569E+01
 0.56423015845E+01 0.68581289258E+01 0.82889052251E+01 0.98300783026E+01 0.11278092968E+02
 0.11065301539E+02 0.12033652235E+02 0.12295933154E+02 0.11892707443E+02 0.11198525061E+02
 0.10713620609E+02 0.10767424850E+02 0.11320049305E+02 0.11988587812E+02 0.12277224842E+02
 0.11862196121E+02 0.10761479116E+02 0.93006540189E+01 0.78103605411E+01 0.64498280381E+01
 0.53143178619E+01 0.44421023516E+01 0.38302943018E+01 0.34576794110E+01 0.33030414769E+01
 0.33538488481E+01 0.36081428412E+01 0.40742427695E+01 0.47678722598E+01 0.57025844987E+01
 0.68724502364E+01 0.82322101653E+01 0.96840270968E+01 0.94087328387E+01 0.10701477552E+02
 0.11722217215E+02 0.12253220263E+02 0.12319483887E+02 0.12171012912E+02 0.12111046619E+02
 0.12288734906E+02 0.12594960142E+02 0.12730278255E+02 0.12397275738E+02 0.11491051737E+02
 0.10170855517E+02 0.87210735080E+01 0.73156262169E+01 0.60716990774E+01 0.50558927373E+01
 0.42884000043E+01 0.37595709687E+01 0.34487111316E+01 0.33373343970E+01 0.34149686705E+01
 0.36805273110E+01 0.41419129415E+01 0.48126063503E+01 0.57023075432E+01 0.68017404746E+01
 0.80665697158E+01 0.77997993338E+01 0.90172219807E+01 0.10201543420E+02 0.11228271697E+02
 0.11948457028E+02 0.12357096598E+02 0.12587369646E+02 0.12784641635E+02 0.12978070066E+02
 0.13043110295E+02 0.12782122904E+02 0.12066774387E+02 0.10945142311E+02 0.96133870706E+01
 0.82344718449E+01 0.69367873579E+01 0.58109535365E+01 0.49031025942E+01 0.42229484900E+01
 0.37587625723E+01 0.34918343837E+01 0.34061164449E+01 0.34927409480E+01 0.37513236276E+01
 0.41891357937E+01 0.48170884474E+01 0.56410270567E+01 0.66491296722E+01 0.64228916999E+01
 0.74466047398E+01 0.85313704238E+01 0.96011211070E+01 0.10583602308E+02 0.11401575992E+02
 0.12020641309E+02 0.12479172751E+02 0.12810845526E+02 0.12977914524E+02 0.12873893914E+02
 0.12397013382E+02 0.11541631516E+02 0.10417962573E+02 0.91539594415E+01 0.78773809605E+01
 0.66954479877E+01 0.56789575359E+01 0.48615288404E+01 0.42484689398E+01 0.38288491496E+01
 0.35863891231E+01 0.35071765729E+01 0.35839183908E+01 0.38171062196E+01 0.42133807975E+01
 0.47809525594E+01 0.55219595961E+01 0.53517708052E+01 0.61360184245E+01 0.70278147928E+01
 0.79804877454E+01 0.89400119244E+01 0.98569607716E+01 0.10693629095E+02 0.11413918691E+02
 0.11990826743E+02 0.12389771597E+02 0.12545046074E+02 0.12381395003E+02 0.11869162303E+02
 0.11047202871E+02 0.99994076643E+01 0.88385264785E+01 0.76772672591E+01 0.66057065602E+01
 0.56818487696E+01 0.49333689380E+01 0.43651672021E+01 0.39684777514E+01 0.37295200062E+01
 0.36365893404E+01 0.36843663275E+01 0.38745870178E+01 0.42133502635E+01 0.47061589911E+01
 0.45968382239E+01 0.51401304366E+01 0.58053438086E+01 0.65687467552E+01 0.73985567505E+01
 0.82596590506E+01 0.91183710830E+01 0.99429059624E+01 0.10697236865E+02 0.11332051058E+02
 0.11781712048E+02 0.11974742448E+02 0.11856504256E+02 0.11412902480E+02 0.10681417110E+02
 0.97430383301E+01 0.87000026057E+01 0.76510556994E+01 0.66743567154E+01 0.58211990960E+01
 0.51177399445E+01 0.45705367890E+01 0.41735623812E+01 0.39158745233E+01 0.37886196453E+01
 0.37891406037E+01 0.39207589861E+01 0.41890371905E+01 0.41417281292E+01 0.44590249470E+01
 0.48990708417E+01 0.54502466268E+01 0.60968680398E+01 0.68206586194E+01 0.76014240059E+01
 0.84160944700E+01 0.92350260915E+01 0.10015981022E+02 0.10699607475E+02 0.11212411081E+02
 0.11480653280E+02 0.11451710449E+02 0.11113157655E+02 0.10499569783E+02 0.96835182347E+01
 0.87558143167E+01 0.78046245849E+01 0.69011776382E+01 0.60941388314E+01 0.54103190427E+01
 0.48587633036E+01 0.44368244218E+01 0.41374555837E+01 0.39558484075E+01 0.38927378052E+01
 0.39530930369E+01 0.39697515329E+01 0.40739543009E+01 0.43003140609E+01 0.46421806215E+01
 0.50910568259E+01 0.56391767177E+01 0.62794219581E+01 0.70023994804E+01 0.77917481756E+01
 0.86187154951E+01 0.94373310446E+01 0.10182973024E+02 0.10778032565E+02 0.11146247954E+02
 0.11232264473E+02 0.11018509704E+02 0.10531359772E+02 0.98335620573E+01 0.90068268340E+01
 0.81326996543E+01 0.72787711653E+01 0.64926843994E+01 0.58023676754E+01 0.52199139387E+01
 0.47474529979E+01 0.43837554738E+01 0.41295742225E+01 0.39895004817E+01 0.40740783386E+01
 0.39697654332E+01 0.39893906240E+01 0.41294405372E+01 0.43836702065E+01 0.47473988222E+01
 0.52198605107E+01 0.58023186542E+01 0.64926377773E+01 0.72787122386E+01 0.81326461665E+01
 0.90068144981E+01 0.98335804209E+01 0.10531364664E+02 0.11018495863E+02 0.11232262307E+02
 0.11146257185E+02 0.10778027389E+02 0.10182965444E+02 0.94373609350E+01 0.86187841146E+01
 0.77918234711E+01 0.70024729736E+01 0.62794982135E+01 0.56392316240E+01 0.50910789509E+01
 0.46422254463E+01 0.43004305800E+01 0.44590744266E+01 0.41418290996E+01 0.39531325450E+01
 0.38926810278E+01 0.39557578645E+01 0.41373784674E+01 0.44367571476E+01 0.48587101825E+01
 0.54102945286E+01 0.60941211193E+01 0.69011376183E+01 0.78045862942E+01 0.87558166410E+01
 0.96835401953E+01 0.10499564853E+02 0.11113134846E+02 0.11451709558E+02 0.11480669711E+02
 0.11212418103E+02 0.10699622047E+02 0.10016035243E+02 0.92351053573E+01 0.84161715849E+01
 0.76015128120E+01 0.68207623784E+01 0.60969266589E+01 0.54502220019E+01 0.48990366749E+01
 0.51400144262E+01 0.45968081010E+01 0.41890951056E+01 0.39208163435E+01 0.37891570763E+01
 0.37886092533E+01 0.39158349427E+01 0.41734950889E+01 0.45704885681E+01 0.51177406346E+01
 0.58212061017E+01 0.66743312417E+01 0.76510343289E+01 0.87000234526E+01 0.97430631456E+01
 0.10681401526E+02 0.11412877954E+02 0.11856516514E+02 0.11974774384E+02 0.11781738009E+02
 0.11332097424E+02 0.10697319371E+02 0.99429820445E+01 0.91184231781E+01 0.82597401802E+01
 0.73986767994E+01 0.65688055510E+01 0.58052717215E+01 0.61359141287E+01 0.53516103725E+01
 0.47060768263E+01 0.42133643350E+01 0.38746473956E+01 0.36844459161E+01 0.36366538087E+01
 0.37295145050E+01 0.39684149581E+01 0.43651350328E+01 0.49333980097E+01 0.56818717054E+01
 0.66056901061E+01 0.76772692048E+01 0.88385738986E+01 0.99994387065E+01 0.11047184307E+02
 0.11869150275E+02 0.12381427259E+02 0.12545087312E+02 0.12389810474E+02 0.11990905930E+02
 0.11414024351E+02 0.10693680247E+02 0.98569572042E+01 0.89400554097E+01 0.79805971227E+01
 0.70278599463E+01 0.74466144172E+01 0.64227795396E+01 0.55218132335E+01 0.47808647564E+01
 0.42133597727E+01 0.38171498222E+01 0.35840261417E+01 0.35072751437E+01 0.35863907861E+01
 0.38287928200E+01 0.42484675648E+01 0.48615865408E+01 0.56789843868E+01 0.66954384415E+01
 0.78774157445E+01 0.91540388390E+01 0.10418001829E+02 0.11541620799E+02 0.12397025423E+02
 0.12873938407E+02 0.12977941198E+02 0.12810878130E+02 0.12479273469E+02 0.12020754109E+02
 0.11401581315E+02 0.10583524486E+02 0.96011026275E+01 0.85314331298E+01 0.90172088338E+01
 0.77997537505E+01 0.66490334952E+01 0.56409449254E+01 0.48170310033E+01 0.41890870661E+01
 0.37513337186E+01 0.34928367957E+01 0.34061989902E+01 0.34918161089E+01 0.37587206304E+01
 0.42229908909E+01 0.49031816142E+01 0.58109723684E+01 0.69367886638E+01 0.82345471263E+01
 0.96134937119E+01 0.10945184925E+02 0.12066778712E+02 0.12782160577E+02 0.13043145399E+02
 0.12978050835E+02 0.12784644465E+02 0.12587470371E+02 0.12357193043E+02 0.11948407716E+02
 0.11228128086E+02 0.10201459292E+02 0.10701351626E+02 0.94086375012E+01 0.80664647494E+01
 0.68016783047E+01 0.57023104333E+01 0.48125875233E+01 0.41418403783E+01 0.36805013218E+01
 0.34150288147E+01 0.33373686717E+01 0.34486657678E+01 0.37595600971E+01 0.42884910172E+01
 0.50559777569E+01 0.60717032427E+01 0.73156482305E+01 0.87211886388E+01 0.10170969872E+02
 0.11491084005E+02 0.12397295470E+02 0.12730334145E+02 0.12594964016E+02 0.12288651866E+02
 0.12111006948E+02 0.12171089134E+02 0.12319539259E+02 0.12253125513E+02 0.11722046554E+02
 0.12033510543E+02 0.11065177302E+02 0.96838719455E+01 0.82320662250E+01 0.68724348252E+01
 0.57026614371E+01 0.47678761945E+01 0.40741539114E+01 0.36080989839E+01 0.33538753643E+01
 0.33030253181E+01 0.34576241389E+01 0.38303333491E+01 0.44422334651E+01 0.53143896354E+01
 0.64498201634E+01 0.78104144311E+01 0.93007942538E+01 0.10761568318E+02 0.11862199744E+02
 0.12277256186E+02 0.11988653785E+02 0.11320018426E+02 0.10767293305E+02 0.10713548924E+02
 0.11198557514E+02 0.11892701786E+02 0.12295816729E+02 0.12121195324E+02 0.12170132749E+02
 0.11278013569E+02 0.98299061147E+01 0.82887646194E+01 0.68581696682E+01 0.56424222677E+01
 0.46855945258E+01 0.39896909253E+01 0.35376102013E+01 0.33117836738E+01 0.33038855900E+01
 0.35174834593E+01 0.39679271926E+01 0.46787463636E+01 0.56687451432E+01 0.69281140792E+01
 0.83925548646E+01 0.99300839524E+01 0.11246871913E+02 0.11857840806E+02 0.11516505974E+02
 0.10422009741E+02 0.91665590472E+01 0.84461357796E+01 0.86813745961E+01 0.97746661735E+01
 0.11160557724E+02 0.10288930944E+02 0.11823191586E+02 0.12168643210E+02 0.11343581769E+02
 0.98425751098E+01 0.82356176542E+01 0.67608907414E+01 0.55256351744E+01 0.45706401148E+01
 0.38930614294E+01 0.34724530249E+01 0.32903336456E+01 0.33393279781E+01 0.36253633581E+01
 0.41670684312E+01 0.49893425732E+01 0.61046268821E+01 0.74835596551E+01 0.90284882233E+01
 0.10533513149E+02 0.11479702639E+02 0.11349519269E+02 0.10054433451E+02 0.80729782508E+01
 0.62860211609E+01 0.55564327754E+01 0.62725259179E+01 0.81292740270E+01 0.65699994768E+01
 0.94840515067E+01 0.11514748486E+02 0.12076566055E+02 0.11275287154E+02 0.97255092595E+01
 0.80779280344E+01 0.65873623645E+01 0.53596107298E+01 0.44297663707E+01 0.37895533771E+01
 0.34158457761E+01 0.32903052064E+01 0.34075477489E+01 0.37768147492E+01 0.44201351414E+01
 0.53616761998E+01 0.66027399751E+01 0.80884041202E+01 0.96814621776E+01 0.11007797460E+02
 0.11375413392E+02 0.10327370745E+02 0.79997628352E+01 0.51843530165E+01 0.30311600925E+01
 0.25023782421E+01 0.38713473592E+01 0.19065103543E+01 0.54094300955E+01 0.89374402233E+01
 0.11292027585E+02 0.11932499945E+02 0.11087348594E+02 0.94886047127E+01 0.78263226665E+01
 0.63484147388E+01 0.51543094302E+01 0.42710611365E+01 0.36847709392E+01 0.33706365843E+01
 0.33116965515E+01 0.35056684985E+01 0.39658238693E+01 0.47169651193E+01 0.57796621959E+01
 0.71395978345E+01 0.87122591752E+01 0.10295541992E+02 0.11290274686E+02 0.10941323246E+02
 0.89194906603E+01 0.56291812777E+01 0.21695730916E+01 -.10173427416E+00 -.21602852846E+00
 -.21140648170E+01 0.75016074253E+00 0.48864393266E+01 0.87731401890E+01 0.11204370747E+02
 0.11752108961E+02 0.10789783673E+02 0.91465558205E+01 0.74957383247E+01 0.60580463811E+01
 0.49215219308E+01 0.41032926103E+01 0.35842128203E+01 0.33391276879E+01 0.33537384056E+01
 0.36297946749E+01 0.41847699982E+01 0.50448497675E+01 0.62239620418E+01 0.76889792841E+01
 0.93246716409E+01 0.10816232134E+02 0.11378985744E+02 0.10281360986E+02 0.73736514102E+01
 0.33380846939E+01 -.46832831625E+00 -.25769411781E+01 0.37461453640E-01 0.75075120070E+00
 0.34141996716E+01 0.69502500886E+01 0.10027213708E+02 0.11678924619E+02 0.11665949961E+02
 0.10437266571E+02 0.87713519726E+01 0.71713874927E+01 0.58031247033E+01 0.47365943124E+01
 0.39789217635E+01 0.35075461621E+01 0.32978913299E+01 0.33374335880E+01 0.36294604091E+01
 0.41924834415E+01 0.50527324642E+01 0.62224976215E+01 0.76662143281E+01 0.92690243720E+01
 0.10738648935E+02 0.11359229285E+02 0.10483635402E+02 0.80208146114E+01 0.46338347202E+01
 0.15530585900E+01 0.62655213766E+00 -.53571678880E+00 0.62665347876E+00 0.36245938563E+01
 0.72456265927E+01 0.10159308695E+02 0.11517160718E+02 0.11236829639E+02 0.98807742596E+01
 0.82326838184E+01 0.66995991890E+01 0.54216231883E+01 0.44525603255E+01 0.37893316382E+01
 0.34063854230E+01 0.32813738884E+01 0.34062761388E+01 0.37893003034E+01 0.44526127395E+01
 0.54215795719E+01 0.66994640321E+01 0.82326556989E+01 0.98808716212E+01 0.11236862055E+02
 0.11517089408E+02 0.10159287757E+02 0.72456724992E+01 0.36245607870E+01 0.34141421288E+01
 0.75066758493E+00 0.37501176976E-01 0.15531432963E+01 0.46338190045E+01 0.80207763291E+01