   2   2   0   0
  0.1529437E+02  0.3691622E-09  0.3691622E-09  0.3691622E-09  0.5000000E-15
  1.000000000000000E-004
  CAR 
 unknown system                          
     22.49131311     -6.45103257  301      9.16059650      1.00000000
     -6.451  0.0000E+00  0.0000E+00
     -6.355  0.0000E+00  0.0000E+00
     -6.258  0.0000E+00  0.0000E+00
     -6.162  0.0000E+00  0.0000E+00
     -6.065  0.0000E+00  0.0000E+00
     -5.969  0.0000E+00  0.0000E+00
     -5.872  0.0000E+00  0.0000E+00
     -5.776  0.0000E+00  0.0000E+00
     -5.679  0.0000E+00  0.0000E+00
     -5.583  0.1563E-16  0.1508E-17
     -5.486  0.3150E-14  0.3054E-15
     -5.390  0.4032E-12  0.3921E-13
     -5.293  0.3267E-10  0.3191E-11
     -5.197  0.1677E-08  0.1649E-09
     -5.100  0.5457E-07  0.5429E-08
     -5.004  0.1127E-05  0.1142E-06
     -4.907  0.1481E-04  0.1543E-05
     -4.811  0.1238E-03  0.1349E-04
     -4.714  0.6596E-03  0.7712E-04
     -4.618  0.2242E-02  0.2935E-03
     -4.522  0.4869E-02  0.7632E-03
     -4.425  0.6767E-02  0.1416E-02
     -4.329  0.6097E-02  0.2004E-02
     -4.232  0.3937E-02  0.2384E-02
     -4.136  0.3073E-02  0.2680E-02
     -4.039  0.4963E-02  0.3159E-02
     -3.943  0.9822E-02  0.4107E-02
     -3.846  0.1724E-01  0.5770E-02
     -3.750  0.2417E-01  0.8101E-02
     -3.653  0.2556E-01  0.1057E-01
     -3.557  0.2097E-01  0.1259E-01
     -3.460  0.1655E-01  0.1419E-01
     -3.364  0.1644E-01  0.1577E-01
     -3.267  0.1743E-01  0.1746E-01
     -3.171  0.1559E-01  0.1896E-01
     -3.074  0.1132E-01  0.2005E-01
     -2.978  0.7144E-02  0.2074E-01
     -2.881  0.5945E-02  0.2131E-01
     -2.785  0.9581E-02  0.2224E-01
     -2.689  0.1672E-01  0.2385E-01
     -2.592  0.2475E-01  0.2624E-01
     -2.496  0.3323E-01  0.2945E-01
     -2.399  0.3975E-01  0.3328E-01
     -2.303  0.3789E-01  0.3693E-01
     -2.206  0.2780E-01  0.3962E-01
     -2.110  0.1975E-01  0.4152E-01
     -2.013  0.2017E-01  0.4347E-01
     -1.917  0.2391E-01  0.4578E-01
     -1.820  0.2310E-01  0.4800E-01
     -1.724  0.1691E-01  0.4963E-01
     -1.627  0.1202E-01  0.5079E-01
     -1.531  0.1619E-01  0.5236E-01
     -1.434  0.2954E-01  0.5521E-01
     -1.338  0.4086E-01  0.5915E-01
     -1.241  0.3950E-01  0.6296E-01
     -1.145  0.2993E-01  0.6585E-01
     -1.048  0.2291E-01  0.6806E-01
     -0.952  0.2240E-01  0.7022E-01
     -0.856  0.3015E-01  0.7313E-01
     -0.759  0.4446E-01  0.7742E-01
     -0.663  0.5373E-01  0.8260E-01
     -0.566  0.4825E-01  0.8726E-01
     -0.470  0.3227E-01  0.9037E-01
     -0.373  0.1704E-01  0.9201E-01
     -0.277  0.1118E-01  0.9309E-01
     -0.180  0.1847E-01  0.9487E-01
     -0.084  0.3605E-01  0.9835E-01
      0.013  0.5280E-01  0.1034E+00
      0.109  0.5679E-01  0.1089E+00
      0.206  0.4587E-01  0.1133E+00
      0.302  0.2932E-01  0.1162E+00
      0.399  0.2071E-01  0.1182E+00
      0.495  0.2542E-01  0.1206E+00
      0.592  0.3376E-01  0.1239E+00
      0.688  0.3249E-01  0.1270E+00
      0.785  0.2235E-01  0.1292E+00
      0.881  0.1471E-01  0.1306E+00
      0.978  0.1644E-01  0.1322E+00
      1.074  0.2601E-01  0.1347E+00
      1.170  0.3622E-01  0.1382E+00
      1.267  0.4170E-01  0.1422E+00
      1.363  0.4543E-01  0.1466E+00
      1.460  0.4896E-01  0.1513E+00
      1.556  0.4829E-01  0.1560E+00
      1.653  0.4798E-01  0.1606E+00
      1.749  0.5626E-01  0.1660E+00
      1.846  0.6713E-01  0.1725E+00
      1.942  0.6808E-01  0.1791E+00
      2.039  0.5849E-01  0.1847E+00
      2.135  0.4760E-01  0.1893E+00
      2.232  0.4168E-01  0.1933E+00
      2.328  0.4132E-01  0.1973E+00
      2.425  0.4193E-01  0.2014E+00
      2.521  0.3669E-01  0.2049E+00
      2.618  0.2770E-01  0.2076E+00
      2.714  0.2341E-01  0.2098E+00
      2.811  0.2459E-01  0.2122E+00
      2.907  0.2585E-01  0.2147E+00
      3.003  0.2351E-01  0.2170E+00
      3.100  0.1757E-01  0.2187E+00
      3.196  0.1296E-01  0.2199E+00
      3.293  0.1675E-01  0.2215E+00
      3.389  0.2960E-01  0.2244E+00
      3.486  0.4293E-01  0.2285E+00
      3.582  0.4815E-01  0.2332E+00
      3.679  0.4483E-01  0.2375E+00
      3.775  0.3857E-01  0.2412E+00
      3.872  0.3724E-01  0.2448E+00
      3.968  0.4411E-01  0.2491E+00
      4.065  0.5517E-01  0.2544E+00
      4.161  0.6817E-01  0.2610E+00
      4.258  0.8199E-01  0.2689E+00
      4.354  0.8649E-01  0.2772E+00
      4.451  0.7256E-01  0.2842E+00
      4.547  0.4857E-01  0.2889E+00
      4.644  0.3163E-01  0.2920E+00
      4.740  0.2904E-01  0.2948E+00
      4.836  0.3453E-01  0.2981E+00
      4.933  0.3767E-01  0.3017E+00
      5.029  0.3501E-01  0.3051E+00
      5.126  0.3197E-01  0.3082E+00
      5.222  0.3136E-01  0.3112E+00
      5.319  0.2917E-01  0.3140E+00
      5.415  0.2676E-01  0.3166E+00
      5.512  0.3159E-01  0.3197E+00
      5.608  0.4459E-01  0.3240E+00
      5.705  0.6198E-01  0.3299E+00
      5.801  0.8174E-01  0.3378E+00
      5.898  0.9762E-01  0.3472E+00
      5.994  0.1004E+00  0.3569E+00
      6.091  0.8738E-01  0.3654E+00
      6.187  0.6474E-01  0.3716E+00
      6.284  0.4737E-01  0.3762E+00
      6.380  0.4782E-01  0.3808E+00
      6.477  0.6101E-01  0.3867E+00
      6.573  0.6920E-01  0.3933E+00
      6.669  0.6328E-01  0.3995E+00
      6.766  0.5163E-01  0.4044E+00
      6.862  0.4836E-01  0.4091E+00
      6.959  0.5953E-01  0.4148E+00
      7.055  0.7563E-01  0.4221E+00
      7.152  0.7854E-01  0.4297E+00
      7.248  0.6373E-01  0.4359E+00
      7.345  0.4656E-01  0.4404E+00
      7.441  0.4211E-01  0.4444E+00
      7.538  0.4865E-01  0.4491E+00
      7.634  0.5479E-01  0.4544E+00
      7.731  0.5453E-01  0.4597E+00
      7.827  0.5121E-01  0.4646E+00
      7.924  0.5219E-01  0.4696E+00
      8.020  0.5947E-01  0.4754E+00
      8.117  0.7005E-01  0.4821E+00
      8.213  0.8131E-01  0.4900E+00
      8.310  0.8476E-01  0.4982E+00
      8.406  0.7396E-01  0.5053E+00
      8.503  0.5849E-01  0.5109E+00
      8.599  0.4870E-01  0.5156E+00
      8.695  0.4145E-01  0.5196E+00
      8.792  0.3172E-01  0.5227E+00
      8.888  0.2363E-01  0.5250E+00
      8.985  0.2413E-01  0.5273E+00
      9.081  0.3186E-01  0.5304E+00
      9.178  0.3747E-01  0.5340E+00
      9.274  0.3479E-01  0.5373E+00
      9.371  0.2923E-01  0.5402E+00
      9.467  0.3019E-01  0.5431E+00
      9.564  0.3927E-01  0.5469E+00
      9.660  0.5374E-01  0.5520E+00
      9.757  0.7137E-01  0.5589E+00
      9.853  0.8509E-01  0.5671E+00
      9.950  0.8512E-01  0.5754E+00
     10.046  0.7026E-01  0.5821E+00
     10.143  0.5018E-01  0.5870E+00
     10.239  0.3508E-01  0.5904E+00
     10.336  0.2674E-01  0.5929E+00
     10.432  0.2306E-01  0.5952E+00
     10.528  0.2534E-01  0.5976E+00
     10.625  0.3362E-01  0.6008E+00
     10.721  0.4284E-01  0.6050E+00
     10.818  0.4763E-01  0.6096E+00
     10.914  0.4665E-01  0.6141E+00
     11.011  0.4473E-01  0.6184E+00
     11.107  0.5048E-01  0.6233E+00
     11.204  0.6933E-01  0.6300E+00
     11.300  0.9624E-01  0.6392E+00
     11.397  0.1133E+00  0.6502E+00
     11.493  0.1059E+00  0.6604E+00
     11.590  0.8501E-01  0.6686E+00
     11.686  0.7501E-01  0.6758E+00
     11.783  0.7869E-01  0.6834E+00
     11.879  0.7520E-01  0.6907E+00
     11.976  0.5555E-01  0.6960E+00
     12.072  0.3873E-01  0.6998E+00
     12.169  0.4358E-01  0.7040E+00
     12.265  0.6251E-01  0.7100E+00
     12.361  0.7080E-01  0.7168E+00
     12.458  0.5768E-01  0.7224E+00
     12.554  0.3799E-01  0.7261E+00
     12.651  0.2888E-01  0.7288E+00
     12.747  0.3178E-01  0.7319E+00
     12.844  0.3922E-01  0.7357E+00
     12.940  0.4361E-01  0.7399E+00
     13.037  0.4275E-01  0.7440E+00
     13.133  0.4210E-01  0.7481E+00
     13.230  0.4807E-01  0.7527E+00
     13.326  0.6440E-01  0.7589E+00
     13.423  0.9301E-01  0.7679E+00
     13.519  0.1248E+00  0.7799E+00
     13.616  0.1381E+00  0.7933E+00
     13.712  0.1236E+00  0.8052E+00
     13.809  0.9735E-01  0.8146E+00
     13.905  0.7873E-01  0.8222E+00
     14.002  0.7004E-01  0.8289E+00
     14.098  0.6372E-01  0.8351E+00
     14.195  0.6206E-01  0.8411E+00
     14.291  0.7333E-01  0.8481E+00
     14.387  0.8957E-01  0.8568E+00
     14.484  0.9155E-01  0.8656E+00
     14.580  0.7405E-01  0.8728E+00
     14.677  0.5005E-01  0.8776E+00
     14.773  0.3247E-01  0.8807E+00
     14.870  0.2278E-01  0.8829E+00
     14.966  0.1987E-01  0.8848E+00
     15.063  0.2782E-01  0.8875E+00
     15.159  0.5085E-01  0.8924E+00
     15.256  0.8535E-01  0.9007E+00
     15.352  0.1152E+00  0.9118E+00
     15.449  0.1207E+00  0.9234E+00
     15.545  0.1001E+00  0.9331E+00
     15.642  0.7193E-01  0.9400E+00
     15.738  0.5208E-01  0.9450E+00
     15.835  0.4177E-01  0.9491E+00
     15.931  0.3644E-01  0.9526E+00
     16.028  0.3374E-01  0.9558E+00
     16.124  0.3292E-01  0.9590E+00
     16.220  0.3218E-01  0.9621E+00
     16.317  0.3001E-01  0.9650E+00
     16.413  0.2824E-01  0.9677E+00
     16.510  0.2868E-01  0.9705E+00
     16.606  0.3152E-01  0.9735E+00
     16.703  0.3685E-01  0.9771E+00
     16.799  0.4147E-01  0.9811E+00
     16.896  0.4214E-01  0.9852E+00
     16.992  0.3961E-01  0.9890E+00
     17.089  0.3479E-01  0.9923E+00
     17.185  0.3037E-01  0.9953E+00
     17.282  0.2933E-01  0.9981E+00
     17.378  0.3059E-01  0.1001E+01
     17.475  0.3318E-01  0.1004E+01
     17.571  0.3566E-01  0.1008E+01
     17.668  0.3451E-01  0.1011E+01
     17.764  0.2961E-01  0.1014E+01
     17.861  0.2395E-01  0.1016E+01
     17.957  0.2083E-01  0.1018E+01
     18.053  0.2617E-01  0.1021E+01
     18.150  0.4254E-01  0.1025E+01
     18.246  0.5911E-01  0.1031E+01
     18.343  0.6147E-01  0.1036E+01
     18.439  0.5003E-01  0.1041E+01
     18.536  0.3505E-01  0.1045E+01
     18.632  0.2250E-01  0.1047E+01
     18.729  0.1535E-01  0.1048E+01
     18.825  0.1631E-01  0.1050E+01
     18.922  0.2269E-01  0.1052E+01
     19.018  0.2650E-01  0.1055E+01
     19.115  0.2327E-01  0.1057E+01
     19.211  0.1652E-01  0.1058E+01
     19.308  0.1164E-01  0.1060E+01
     19.404  0.9312E-02  0.1061E+01
     19.501  0.6972E-02  0.1061E+01
     19.597  0.3874E-02  0.1062E+01
     19.694  0.1445E-02  0.1062E+01
     19.790  0.3513E-03  0.1062E+01
     19.887  0.7712E-04  0.1062E+01
     19.983  0.1837E-03  0.1062E+01
     20.079  0.8972E-03  0.1062E+01
     20.176  0.2959E-02  0.1062E+01
     20.272  0.6575E-02  0.1063E+01
     20.369  0.1022E-01  0.1064E+01
     20.465  0.1156E-01  0.1065E+01
     20.562  0.9659E-02  0.1066E+01
     20.658  0.5836E-02  0.1066E+01
     20.755  0.2448E-02  0.1067E+01
     20.851  0.6875E-03  0.1067E+01
     20.948  0.1262E-03  0.1067E+01
     21.044  0.1494E-04  0.1067E+01
     21.141  0.1132E-05  0.1067E+01
     21.237  0.5467E-07  0.1067E+01
     21.334  0.1678E-08  0.1067E+01
     21.430  0.3268E-10  0.1067E+01
     21.527  0.4033E-12  0.1067E+01
     21.623  0.3148E-14  0.1067E+01
     21.720  0.1705E-16  0.1067E+01
     21.816  0.0000E+00  0.1067E+01
     21.912  0.0000E+00  0.1067E+01
     22.009  0.0000E+00  0.1067E+01
     22.105  0.0000E+00  0.1067E+01
     22.202  0.0000E+00  0.1067E+01
     22.298  0.0000E+00  0.1067E+01
     22.395  0.0000E+00  0.1067E+01
     22.491  0.0000E+00  0.1067E+01
