    2    2   15    1
  0.1529437E+02  0.3691622E-09  0.3691622E-09  0.3691622E-09  0.5000000E-15
  1.000000000000000E-004
  CAR 
 unknown system                          
      8     28      8
 
  0.8333333E-01  0.8333333E-01  0.8333333E-01  0.3703704E-01
    1       -3.668325   1.000000
    2        3.909747   1.000000
    3        7.125688   1.000000
    4        8.630705   0.999910
    5       12.834560   0.000000
    6       13.722178   0.000000
    7       13.957286   0.000000
    8       15.790853   0.000000
 
  0.2500000E+00  0.8333333E-01  0.8333333E-01  0.7407407E-01
    1       -1.342965   1.000000
    2        4.281980   1.000000
    3        7.495988   1.000000
    4        7.974729   1.000000
    5        9.733330   0.000026
    6       12.305179   0.000000
    7       13.565100   0.000000
    8       14.367622   0.000000
 
  0.4166667E+00  0.8333333E-01  0.8333333E-01  0.3703704E-01
    1        2.192613   1.000000
    2        2.735614   1.000000
    3        6.030150   1.000000
    4        6.119303   1.000000
    5        9.578133   0.001576
    6       11.359862   0.000000
    7       13.664670   0.000000
    8       14.515549   0.000000
 
 -0.8333333E-01  0.8333333E-01  0.8333333E-01  0.1851852E-01
    1       -4.451033   1.000000
    2        4.506049   1.000000
    3        5.696325   1.000000
    4        8.245821   1.000000
    5       11.462978   0.000000
    6       14.331654   0.000000
    7       17.503792   0.000000
    8       18.147608   0.000000
 
  0.2500000E+00  0.2500000E+00  0.8333333E-01  0.3703704E-01
    1        2.096676   1.000000
    2        3.994967   1.000000
    3        4.096710   1.000000
    4        5.848139   1.000000
    5       10.985233   0.000000
    6       12.202830   0.000000
    7       13.810603   0.000000
    8       14.306401   0.000000
 
  0.4166667E+00  0.2500000E+00  0.8333333E-01  0.7407407E-01
    1       -0.052790   1.000000
    2        1.849106   1.000000
    3        6.997697   1.000000
    4        8.306630   1.000000
    5        9.964173   0.000000
    6       11.782459   0.000000
    7       13.558965   0.000000
    8       15.205998   0.000000
 
 -0.4166667E+00  0.2500000E+00  0.8333333E-01  0.3703704E-01
    1       -2.683945   1.000000
    2        1.168449   1.000000
    3        8.020011   1.000000
    4        9.834252   0.000001
    5       11.445211   0.000000
    6       12.913953   0.000000
    7       14.088877   0.000000
    8       14.324930   0.000000
 
 -0.2500000E+00  0.2500000E+00  0.8333333E-01  0.3703704E-01
    1       -3.791511   1.000000
    2        1.945697   1.000000
    3        5.960954   1.000000
    4        9.834062   0.000001
    5       11.449130   0.000000
    6       14.492799   0.000000
    7       15.336273   0.000000
    8       18.903205   0.000000
 
 -0.8333333E-01  0.2500000E+00  0.8333333E-01  0.3703704E-01
    1       -3.340049   1.000000
    2        3.653137   1.000000
    3        5.180016   1.000000
    4       10.679329   0.000000
    5       11.808371   0.000000
    6       13.244509   0.000000
    7       14.015874   0.000000
    8       15.942622   0.000000
 
  0.4166667E+00  0.4166667E+00  0.8333333E-01  0.1851852E-01
    1       -1.059989   1.000000
    2       -1.059988   1.000000
    3        9.475977   0.012871
    4        9.475984   0.012870
    5       11.358789   0.000000
    6       11.358820   0.000000
    7       13.722039   0.000000
    8       13.722054   0.000000
 
 -0.4166667E+00  0.4166667E+00  0.8333333E-01  0.3703704E-01
    1       -2.482466   1.000000
    2       -0.547871   1.000000
    3        7.179225   1.000000
    4        9.024538   0.831995
    5       11.246203   0.000000
    6       13.079075   0.000000
    7       18.235333   0.000000
    8       18.532629   0.000000
 
 -0.2500000E+00  0.4166667E+00  0.8333333E-01  0.7407407E-01
    1       -2.360861   1.000000
    2        1.430548   1.000000
    3        5.573263   1.000000
    4        9.177573   0.452226
    5       11.372333   0.000000
    6       13.472809   0.000000
    7       15.538921   0.000000
    8       16.741992   0.000000
 
 -0.8333333E-01  0.4166667E+00  0.8333333E-01  0.3703704E-01
    1       -0.699186   1.000000
    2        4.262626   1.000000
    3        5.882889   1.000000
    4        6.473521   1.000000
    5       10.075890   0.000000
    6       12.304046   0.000000
    7       13.345933   0.000000
    8       15.389678   0.000000
 
 -0.4166667E+00 -0.4166667E+00  0.8333333E-01  0.3703704E-01
    1       -0.752508   1.000000
    2       -0.747693   1.000000
    3        7.060092   1.000000
    4        7.078787   1.000000
    5       11.280484   0.000000
    6       14.489611   0.000000
    7       15.286523   0.000000
    8       15.383607   0.000000
 
 -0.2500000E+00 -0.4166667E+00  0.8333333E-01  0.7407407E-01
    1        0.571357   1.000000
    2        2.408404   1.000000
    3        5.807822   1.000000
    4        6.559786   1.000000
    5        8.240153   1.000000
    6       11.843238   0.000000
    7       15.400107   0.000000
    8       16.980891   0.000000
 
 -0.8333333E-01 -0.4166667E+00  0.8333333E-01  0.3703704E-01
    1        1.474228   1.000000
    2        3.439720   1.000000
    3        6.375069   1.000000
    4        7.610624   1.000000
    5        8.193256   1.000000
    6       10.801821   0.000000
    7       11.641070   0.000000
    8       15.691256   0.000000
 
 -0.2500000E+00 -0.2500000E+00  0.8333333E-01  0.3703704E-01
    1        1.168824   1.000000
    2        4.884155   1.000000
    3        4.931843   1.000000
    4        7.732604   1.000000
    5        8.716898   0.999148
    6       10.280729   0.000000
    7       12.652991   0.000000
    8       13.486251   0.000000
 
 -0.8333333E-01 -0.2500000E+00  0.8333333E-01  0.3703704E-01
    1       -1.993650   1.000000
    2        6.710713   1.000000
    3        7.721621   1.000000
    4        8.488994   0.999999
    5        9.880306   0.000000
    6       11.131535   0.000000
    7       12.385478   0.000000
    8       13.559220   0.000000
 
 -0.8333333E-01 -0.8333333E-01  0.8333333E-01  0.9259259E-02
    1       -3.997920   1.000000
    2        6.751645   1.000000
    3        6.825433   1.000000
    4        6.825455   1.000000
    5       11.163734   0.000000
    6       14.513269   0.000000
    7       14.793108   0.000000
    8       16.725599   0.000000
 
  0.2500000E+00  0.2500000E+00  0.2500000E+00  0.9259259E-02
    1        3.401541   1.000000
    2        3.401548   1.000000
    3        4.058565   1.000000
    4        4.058566   1.000000
    5       13.226022   0.000000
    6       13.226029   0.000000
    7       15.032554   0.000000
    8       15.032561   0.000000
 
 -0.2500000E+00  0.2500000E+00  0.2500000E+00  0.1851852E-01
    1       -3.138697   1.000000
    2        1.929938   1.000000
    3        3.631866   1.000000
    4        8.545848   0.999993
    5       12.896168   0.000000
    6       16.051779   0.000000
    7       17.285065   0.000000
    8       18.283099   0.000000
 
 -0.4166667E+00  0.4166667E+00  0.2500000E+00  0.3703704E-01
    1       -1.848315   1.000000
    2        0.022903   1.000000
    3        4.272778   1.000000
    4        6.091235   1.000000
    5       14.751652   0.000000
    6       16.195390   0.000000
    7       17.834333   0.000000
    8       18.194055   0.000000
 
 -0.2500000E+00  0.4166667E+00  0.2500000E+00  0.3703704E-01
    1       -1.401783   1.000000
    2        1.712704   1.000000
    3        3.471452   1.000000
    4        6.503646   1.000000
    5       10.831023   0.000000
    6       16.490664   0.000000
    7       17.515115   0.000000
    8       18.391509   0.000000
 
 -0.4166667E+00 -0.4166667E+00  0.2500000E+00  0.3703704E-01
    1        0.134669   1.000000
    2        0.145113   1.000000
    3        4.395476   1.000000
    4        4.397701   1.000000
    5       10.571340   0.000000
    6       17.642961   0.000000
    7       18.243646   0.000000
    8       19.021634   0.000000
 
 -0.2500000E+00 -0.4166667E+00  0.2500000E+00  0.3703704E-01
    1        1.767702   1.000000
    2        2.986530   1.000000
    3        4.744680   1.000000
    4        5.252014   1.000000
    5        6.003753   1.000000
    6       13.959431   0.000000
    7       15.359319   0.000000
    8       17.256546   0.000000
 
 -0.2500000E+00 -0.2500000E+00  0.2500000E+00  0.9259259E-02
    1        0.854159   1.000000
    2        5.774515   1.000000
    3        5.866287   1.000000
    4        7.272627   1.000000
    5        7.272640   1.000000
    6       11.583370   0.000000
    7       12.271919   0.000000
    8       12.271968   0.000000
 
 -0.4166667E+00  0.4166667E+00  0.4166667E+00  0.1851852E-01
    1       -0.629801   1.000000
    2        0.615737   1.000000
    3        2.437928   1.000000
    4        3.666284   1.000000
    5       16.205523   0.000000
    6       16.412644   0.000000
    7       19.390007   0.000000
    8       20.491313   0.000000
 
 -0.4166667E+00 -0.4166667E+00  0.4166667E+00  0.9259259E-02
    1        1.048507   1.000000
    2        1.066044   1.000000
    3        2.869266   1.000000
    4        2.869267   1.000000
    5       10.291535   0.000000
    6       19.181274   0.000000
    7       20.325089   0.000000
    8       20.325128   0.000000
