       N       E                     dE             d eps       ncg     rms          rms(c)
DAV:   1    -0.102747553625E+02   -0.10275E+02   -0.79945E-03   640   0.522E-01    0.526E-02
DAV:   2    -0.102746738314E+02    0.81531E-04   -0.15205E-04   288   0.941E-02
   1 F= -.10274674E+02 E0= -.10268990E+02  d E =-.102747E+02
