<?xml version="1.0" encoding="ISO-8859-1"?>
<modeling>
 <generator>
  <i name="program" type="string">vasp </i>
  <i name="version" type="string">5.4.4.18Apr17-6-g9f103f2a35  </i>
  <i name="subversion" type="string">(build Dec 09 2018 21:25:21) complex            parallel </i>
  <i name="platform" type="string">IFC18.0.1.163_CrayMPICH7.7.0_MKL18.0.1.163 </i>
  <i name="date" type="string">2019 03 18 </i>
  <i name="time" type="string">04:36:54 </i>
 </generator>
 <incar>
  <i type="string" name="PREC">normal</i>
  <i type="int" name="IBRION">     2</i>
  <i name="EDIFF">      0.00040000</i>
  <i name="EDIFFG">     -0.01000000</i>
  <i type="int" name="NSW">    15</i>
  <i type="int" name="ISIF">     2</i>
  <i name="ENCUT">    250.00000000</i>
  <i type="int" name="NBANDS">     8</i>
  <i type="logical" name="LREAL"> F  </i>
  <i type="int" name="ISMEAR">     0</i>
  <i name="SIGMA">      0.20000000</i>
  <v type="int" name="KPOINT_BSE">    -1     0     0     0</v>
 </incar>
 <structure name="primitive_cell" >
  <crystal>
   <varray name="basis" >
    <v>      -2.45000000       2.45000000       1.27400000 </v>
    <v>       2.45000000      -2.45000000       1.27400000 </v>
    <v>       2.45000000       2.45000000      -1.27400000 </v>
   </varray>
   <i name="volume">     30.58874000 </i>
   <varray name="rec_basis" >
    <v>       0.00000000       0.20408163       0.39246468 </v>
    <v>       0.20408163       0.00000000       0.39246468 </v>
    <v>       0.20408163       0.20408163      -0.00000000 </v>
   </varray>
  </crystal>
  <varray name="positions" >
   <v>       0.25000000      -0.25000000      -0.50000000 </v>
   <v>       0.00000000       0.00000000       0.00000000 </v>
  </varray>
 </structure>
 <varray name="primitive_index" >
  <v type="int" >        1 </v>
  <v type="int" >        2 </v>
 </varray>
 <kpoints>
  <generation param="Monkhorst-Pack">
   <v type="int" name="divisions">       6        6        6 </v>
   <v name="usershift">      0.00000000       0.00000000       0.00000000 </v>
   <v name="genvec1">      0.16666667      -0.00000000       0.00000000 </v>
   <v name="genvec2">     -0.00000000       0.16666667       0.00000000 </v>
   <v name="genvec3">     -0.00000000      -0.00000000       0.16666667 </v>
   <v name="shift">      0.50000000       0.50000000       0.50000000 </v>
  </generation>
  <varray name="kpointlist" >
   <v>       0.08333333       0.08333333       0.08333333 </v>
   <v>       0.25000000       0.08333333       0.08333333 </v>
   <v>       0.41666667       0.08333333       0.08333333 </v>
   <v>      -0.08333333       0.08333333       0.08333333 </v>
   <v>       0.25000000       0.25000000       0.08333333 </v>
   <v>       0.41666667       0.25000000       0.08333333 </v>
   <v>      -0.41666667       0.25000000       0.08333333 </v>
   <v>      -0.25000000       0.25000000       0.08333333 </v>
   <v>      -0.08333333       0.25000000       0.08333333 </v>
   <v>       0.41666667       0.41666667       0.08333333 </v>
   <v>      -0.41666667       0.41666667       0.08333333 </v>
   <v>      -0.25000000       0.41666667       0.08333333 </v>
   <v>      -0.08333333       0.41666667       0.08333333 </v>
   <v>      -0.41666667      -0.41666667       0.08333333 </v>
   <v>      -0.25000000      -0.41666667       0.08333333 </v>
   <v>      -0.08333333      -0.41666667       0.08333333 </v>
   <v>      -0.25000000      -0.25000000       0.08333333 </v>
   <v>      -0.08333333      -0.25000000       0.08333333 </v>
   <v>      -0.08333333      -0.08333333       0.08333333 </v>
   <v>       0.25000000       0.25000000       0.25000000 </v>
   <v>      -0.25000000       0.25000000       0.25000000 </v>
   <v>      -0.41666667       0.41666667       0.25000000 </v>
   <v>      -0.25000000       0.41666667       0.25000000 </v>
   <v>      -0.41666667      -0.41666667       0.25000000 </v>
   <v>      -0.25000000      -0.41666667       0.25000000 </v>
   <v>      -0.25000000      -0.25000000       0.25000000 </v>
   <v>      -0.41666667       0.41666667       0.41666667 </v>
   <v>      -0.41666667      -0.41666667       0.41666667 </v>
  </varray>
  <varray name="weights" >
   <v>       0.03703704 </v>
   <v>       0.07407407 </v>
   <v>       0.03703704 </v>
   <v>       0.01851852 </v>
   <v>       0.03703704 </v>
   <v>       0.07407407 </v>
   <v>       0.03703704 </v>
   <v>       0.03703704 </v>
   <v>       0.03703704 </v>
   <v>       0.01851852 </v>
   <v>       0.03703704 </v>
   <v>       0.07407407 </v>
   <v>       0.03703704 </v>
   <v>       0.03703704 </v>
   <v>       0.07407407 </v>
   <v>       0.03703704 </v>
   <v>       0.03703704 </v>
   <v>       0.03703704 </v>
   <v>       0.00925926 </v>
   <v>       0.00925926 </v>
   <v>       0.01851852 </v>
   <v>       0.03703704 </v>
   <v>       0.03703704 </v>
   <v>       0.03703704 </v>
   <v>       0.03703704 </v>
   <v>       0.00925926 </v>
   <v>       0.01851852 </v>
   <v>       0.00925926 </v>
  </varray>
 </kpoints>
 <parameters>
  <separator name="general" >
   <i type="string" name="SYSTEM">unknown system</i>
   <i type="logical" name="LCOMPAT"> F  </i>
  </separator>
  <separator name="electronic" >
   <i type="string" name="PREC">normal</i>
   <i name="ENMAX">    250.00000000</i>
   <i name="ENAUG">    322.06900000</i>
   <i name="EDIFF">      0.00040000</i>
   <i type="int" name="IALGO">    38</i>
   <i type="int" name="IWAVPR">    11</i>
   <i type="int" name="NBANDS">     8</i>
   <i name="NELECT">      8.00000000</i>
   <i type="int" name="TURBO">     0</i>
   <i type="int" name="IRESTART">     0</i>
   <i type="int" name="NREBOOT">     0</i>
   <i type="int" name="NMIN">     0</i>
   <i name="EREF">      0.00000000</i>
   <separator name="electronic smearing" >
    <i type="int" name="ISMEAR">     0</i>
    <i name="SIGMA">      0.20000000</i>
    <i name="KSPACING">      0.50000000</i>
    <i type="logical" name="KGAMMA"> T  </i>
   </separator>
   <separator name="electronic projectors" >
    <i type="logical" name="LREAL"> F  </i>
    <v name="ROPT">      0.00000000</v>
    <i type="int" name="LMAXPAW">  -100</i>
    <i type="int" name="LMAXMIX">     2</i>
    <i type="logical" name="NLSPLINE"> F  </i>
   </separator>
   <separator name="electronic startup" >
    <i type="int" name="ISTART">     1</i>
    <i type="int" name="ICHARG">     0</i>
    <i type="int" name="INIWAV">     1</i>
   </separator>
   <separator name="electronic spin" >
    <i type="int" name="ISPIN">     1</i>
    <i type="logical" name="LNONCOLLINEAR"> F  </i>
    <v name="MAGMOM">      1.00000000      1.00000000</v>
    <i name="NUPDOWN">     -1.00000000</i>
    <i type="logical" name="LSORBIT"> F  </i>
    <v name="SAXIS">      0.00000000      0.00000000      1.00000000</v>
    <i type="logical" name="LSPIRAL"> F  </i>
    <v name="QSPIRAL">      0.00000000      0.00000000      0.00000000</v>
    <i type="logical" name="LZEROZ"> F  </i>
   </separator>
   <separator name="electronic exchange-correlation" >
    <i type="logical" name="LASPH"> F  </i>
    <i type="logical" name="LMETAGGA"> F  </i>
   </separator>
   <separator name="electronic convergence" >
    <i type="int" name="NELM">    60</i>
    <i type="int" name="NELMDL">     0</i>
    <i type="int" name="NELMIN">     2</i>
    <i name="ENINI">    250.00000000</i>
    <separator name="electronic convergence detail" >
     <i type="logical" name="LDIAG"> T  </i>
     <i type="logical" name="LSUBROT"> F  </i>
     <i name="WEIMIN">      0.00100000</i>
     <i name="EBREAK">      0.00001250</i>
     <i name="DEPER">      0.30000000</i>
     <i type="int" name="NRMM">     4</i>
     <i name="TIME">      0.40000000</i>
    </separator>
   </separator>
   <separator name="electronic mixer" >
    <i name="AMIX">      0.40000000</i>
    <i name="BMIX">      1.00000000</i>
    <i name="AMIN">      0.10000000</i>
    <i name="AMIX_MAG">      1.60000000</i>
    <i name="BMIX_MAG">      1.00000000</i>
    <separator name="electronic mixer details" >
     <i type="int" name="IMIX">     4</i>
     <i type="logical" name="MIXFIRST"> F  </i>
     <i type="int" name="MAXMIX">   -45</i>
     <i name="WC">    100.00000000</i>
     <i type="int" name="INIMIX">     1</i>
     <i type="int" name="MIXPRE">     1</i>
     <i type="int" name="MREMOVE">     5</i>
    </separator>
   </separator>
   <separator name="electronic dipolcorrection" >
    <i type="logical" name="LDIPOL"> F  </i>
    <i type="logical" name="LMONO"> F  </i>
    <i type="int" name="IDIPOL">     0</i>
    <i name="EPSILON">      1.00000000</i>
    <v name="DIPOL">   -100.00000000   -100.00000000   -100.00000000</v>
    <i name="EFIELD">      0.00000000</i>
   </separator>
  </separator>
  <separator name="grids" >
   <i type="int" name="NGX">    14</i>
   <i type="int" name="NGY">    14</i>
   <i type="int" name="NGZ">    14</i>
   <i type="int" name="NGXF">    28</i>
   <i type="int" name="NGYF">    28</i>
   <i type="int" name="NGZF">    28</i>
   <i type="logical" name="ADDGRID"> F  </i>
  </separator>
  <separator name="ionic" >
   <i type="int" name="NSW">    15</i>
   <i type="int" name="IBRION">     2</i>
   <i type="int" name="MDALGO">     0</i>
   <i type="int" name="ISIF">     2</i>
   <i name="PSTRESS">      0.00000000</i>
   <i name="EDIFFG">     -0.01000000</i>
   <i type="int" name="NFREE">     1</i>
   <i name="POTIM">      0.50000000</i>
   <i name="SMASS">     -3.00000000</i>
   <i name="SCALEE">      1.00000000</i>
  </separator>
  <separator name="ionic md" >
   <i name="TEBEG">      0.00010000</i>
   <i name="TEEND">      0.00010000</i>
   <i type="int" name="NBLOCK">     1</i>
   <i type="int" name="KBLOCK">    15</i>
   <i type="int" name="NPACO">   256</i>
   <i name="APACO">     16.00000000</i>
  </separator>
  <separator name="symmetry" >
   <i type="int" name="ISYM">     2</i>
   <i name="SYMPREC">      0.00001000</i>
  </separator>
  <separator name="dos" >
   <i type="int" name="LORBIT">     0</i>
   <v name="RWIGS">     -1.00000000</v>
   <i type="int" name="NEDOS">   301</i>
   <i name="EMIN">     10.00000000</i>
   <i name="EMAX">    -10.00000000</i>
   <i name="EFERMI">      0.00000000</i>
  </separator>
  <separator name="writing" >
   <i type="int" name="NWRITE">     2</i>
   <i type="logical" name="LWAVE"> T  </i>
   <i type="logical" name="LDOWNSAMPLE"> F  </i>
   <i type="logical" name="LCHARG"> T  </i>
   <i type="logical" name="LPARD"> F  </i>
   <i type="logical" name="LVTOT"> F  </i>
   <i type="logical" name="LVHAR"> F  </i>
   <i type="logical" name="LELF"> F  </i>
   <i type="logical" name="LOPTICS"> F  </i>
   <v name="STM">      0.00000000      0.00000000      0.00000000      0.00000000      0.00000000      0.00000000      0.00000000</v>
  </separator>
  <separator name="performance" >
   <i type="int" name="NPAR">     8</i>
   <i type="int" name="NSIM">     4</i>
   <i type="int" name="NBLK">    -1</i>
   <i type="logical" name="LPLANE"> T  </i>
   <i type="logical" name="LSCALAPACK"> T  </i>
   <i type="logical" name="LSCAAWARE"> F  </i>
   <i type="logical" name="LSCALU"> F  </i>
   <i type="logical" name="LASYNC"> F  </i>
   <i type="logical" name="LORBITALREAL"> F  </i>
  </separator>
  <separator name="miscellaneous" >
   <i type="int" name="IDIOT">     3</i>
   <i type="int" name="ISPECIAL">     0</i>
   <i type="logical" name="LMUSIC"> F  </i>
   <v name="POMASS">     28.08500000</v>
   <v name="DARWINR">      0.00000000</v>
   <v name="DARWINV">      1.00000000</v>
   <i type="logical" name="LCORR"> T  </i>
  </separator>
  <i type="logical" name="GGA_COMPAT"> T  </i>
  <i type="logical" name="LBERRY"> F  </i>
  <i type="int" name="ICORELEVEL">     0</i>
  <i type="logical" name="LDAU"> F  </i>
  <i type="int" name="I_CONSTRAINED_M">     0</i>
  <separator name="electronic exchange-correlation" >
   <i type="string" name="GGA">--</i>
   <i type="int" name="VOSKOWN">     0</i>
   <i type="logical" name="LHFCALC"> F  </i>
   <i type="string" name="PRECFOCK"></i>
   <i type="logical" name="LSYMGRAD"> F  </i>
   <i type="logical" name="LHFONE"> F  </i>
   <i type="logical" name="LRHFCALC"> F  </i>
   <i type="logical" name="LTHOMAS"> F  </i>
   <i type="logical" name="LMODELHF"> F  </i>
   <i name="ENCUT4O">     -1.00000000</i>
   <i type="int" name="EXXOEP">     0</i>
   <i type="int" name="FOURORBIT">     0</i>
   <i name="AEXX">      0.00000000</i>
   <i name="HFALPHA">      0.00000000</i>
   <i name="MCALPHA">      0.00000000</i>
   <i name="ALDAX">      1.00000000</i>
   <i name="AGGAX">      1.00000000</i>
   <i name="ALDAC">      1.00000000</i>
   <i name="AGGAC">      1.00000000</i>
   <i type="int" name="NKREDX">     1</i>
   <i type="int" name="NKREDY">     1</i>
   <i type="int" name="NKREDZ">     1</i>
   <i type="logical" name="SHIFTRED"> F  </i>
   <i type="logical" name="ODDONLY"> F  </i>
   <i type="logical" name="EVENONLY"> F  </i>
   <i type="int" name="LMAXFOCK">     0</i>
   <i type="int" name="NMAXFOCKAE">     0</i>
   <i type="logical" name="LFOCKAEDFT"> F  </i>
   <i name="HFSCREEN">      0.00000000</i>
   <i name="HFSCREENC">      0.00000000</i>
   <i type="int" name="NBANDSGWLOW">     0</i>
  </separator>
  <separator name="vdW DFT" >
   <i type="logical" name="LUSE_VDW"> F  </i>
   <i name="Zab_VDW">     -0.84910000</i>
   <i name="PARAM1">      0.12340000</i>
   <i name="PARAM2">      1.00000000</i>
   <i name="PARAM3">      0.00000000</i>
  </separator>
  <separator name="model GW" >
   <i type="int" name="MODEL_GW">     0</i>
   <i name="MODEL_EPS0">      9.17662200</i>
   <i name="MODEL_ALPHA">      1.00000000</i>
  </separator>
  <separator name="linear response parameters" >
   <i type="logical" name="LEPSILON"> F  </i>
   <i type="logical" name="LRPA"> F  </i>
   <i type="logical" name="LNABLA"> F  </i>
   <i type="logical" name="LVEL"> F  </i>
   <i type="int" name="KINTER">     0</i>
   <i name="CSHIFT">      0.10000000</i>
   <i name="OMEGAMAX">     -1.00000000</i>
   <i name="DEG_THRESHOLD">      0.00200000</i>
   <i name="RTIME">     -0.10000000</i>
   <i name="WPLASMAI">      0.00000000</i>
   <v name="DFIELD">      0.00000000      0.00000000      0.00000000</v>
   <v name="WPLASMA">      0.00000000      0.00000000      0.00000000      0.00000000      0.00000000      0.00000000      0.00000000      0.00000000      0.00000000</v>
  </separator>
  <separator name="orbital magnetization" >
   <i type="logical" name="NUCIND"> F  </i>
   <v name="MAGPOS">      0.00000000      0.00000000      0.00000000</v>
   <i type="logical" name="LNICSALL"> T  </i>
   <i type="logical" name="ORBITALMAG"> F  </i>
   <i type="logical" name="LMAGBLOCH"> F  </i>
   <i type="logical" name="LCHIMAG"> F  </i>
   <i type="logical" name="LGAUGE"> T  </i>
   <i type="int" name="MAGATOM">     0</i>
   <v name="MAGDIPOL">      0.00000000      0.00000000      0.00000000</v>
   <v name="AVECCONST">      0.00000000      0.00000000      0.00000000</v>
  </separator>
  <separator name="response functions" >
   <i type="logical" name="LADDER"> F  </i>
   <i type="logical" name="LRPAFORCE"> F  </i>
   <i type="logical" name="LFXC"> F  </i>
   <i type="logical" name="LHARTREE"> T  </i>
   <i type="int" name="IBSE">     0</i>
   <v type="int" name="KPOINT">    -1     0     0     0</v>
   <i type="logical" name="LTCTE"> F  </i>
   <i type="logical" name="LTETE"> F  </i>
   <i type="logical" name="LTRIPLET"> F  </i>
   <i type="logical" name="LFXCEPS"> F  </i>
   <i type="logical" name="LFXHEG"> F  </i>
   <i type="int" name="NATURALO">     2</i>
   <i type="logical" name="L2ORDER"> F  </i>
   <i type="logical" name="LMP2LT"> F  </i>
   <i type="logical" name="LUSEW"> F  </i>
   <i name="ENCUTGW">     -2.00000000</i>
   <i name="ENCUTGWSOFT">     -2.00000000</i>
   <i name="ENCUTLF">     -1.00000000</i>
   <i type="int" name="LMAXMP2">    -1</i>
   <i name="SCISSOR">      0.00000000</i>
   <i type="int" name="NOMEGA">     0</i>
   <i type="int" name="NOMEGAR">     0</i>
   <i type="int" name="NBANDSGW">    -1</i>
   <i type="int" name="NBANDSO">    -1</i>
   <i type="int" name="NBANDSV">    -1</i>
   <i type="int" name="NELM">     1</i>
   <i type="int" name="NELMHF">     1</i>
   <i type="int" name="DIM">     3</i>
   <i type="int" name="ANTIRES">     0</i>
   <i name="OMEGAMAX">    -30.00000000</i>
   <i name="OMEGAMIN">    -30.00000000</i>
   <i name="OMEGATL">   -200.00000000</i>
   <i type="int" name="OMEGAGRID">   140</i>
   <i name="CSHIFT">     -0.10000000</i>
   <i type="logical" name="SELFENERGY"> F  </i>
   <i type="logical" name="LSPECTRAL"> F  </i>
   <i type="logical" name="LSPECTRALGW"> F  </i>
   <i type="logical" name="LSINGLES"> F  </i>
   <i type="logical" name="LFERMIGW"> F  </i>
   <i type="logical" name="ODDONLYGW"> F  </i>
   <i type="logical" name="EVENONLYGW"> F  </i>
   <i type="int" name="NKREDLFX">     1</i>
   <i type="int" name="NKREDLFY">     1</i>
   <i type="int" name="NKREDLFZ">     1</i>
   <i type="int" name="MAXMEM">  2800</i>
   <i type="int" name="TELESCOPE">     0</i>
   <i type="int" name="TAUPAR">     1</i>
   <i type="int" name="OMEGAPAR">    -1</i>
   <i name="LAMBDA">      1.00000000</i>
  </separator>
  <separator name="External order field" >
   <i name="OFIELD_KAPPA">      0.00000000</i>
   <v name="OFIELD_K">      0.00000000      0.00000000      0.00000000</v>
   <i name="OFIELD_Q6_NEAR">      0.00000000</i>
   <i name="OFIELD_Q6_FAR">      0.00000000</i>
   <i name="OFIELD_A">      0.00000000</i>
  </separator>
 </parameters>
 <atominfo>
  <atoms>       2 </atoms>
  <types>       1 </types>
  <array name="atoms" >
   <dimension dim="1">ion</dimension>
   <field type="string">element</field>
   <field type="int">atomtype</field>
   <set>
    <rc><c>Si</c><c>   1</c></rc>
    <rc><c>Si</c><c>   1</c></rc>
   </set>
  </array>
  <array name="atomtypes" >
   <dimension dim="1">type</dimension>
   <field type="int">atomspertype</field>
   <field type="string">element</field>
   <field>mass</field>
   <field>valence</field>
   <field type="string">pseudopotential</field>
   <set>
    <rc><c>   2</c><c>Si</c><c>     28.08500000</c><c>      4.00000000</c><c> PAW_PBE Si 05Jan2001                   </c></rc>
   </set>
  </array>
 </atominfo>
 <structure name="initialpos" >
  <crystal>
   <varray name="basis" >
    <v>      -2.45000000       2.45000000       1.27400000 </v>
    <v>       2.45000000      -2.45000000       1.27400000 </v>
    <v>       2.45000000       2.45000000      -1.27400000 </v>
   </varray>
   <i name="volume">     30.58874000 </i>
   <varray name="rec_basis" >
    <v>       0.00000000       0.20408163       0.39246468 </v>
    <v>       0.20408163       0.00000000       0.39246468 </v>
    <v>       0.20408163       0.20408163      -0.00000000 </v>
   </varray>
  </crystal>
  <varray name="positions" >
   <v>       0.25000000       0.75000000       0.50000000 </v>
   <v>       0.00000000       0.00000000       0.00000000 </v>
  </varray>
 </structure>
 <calculation>
  <scstep>
   <time name="dav">    0.30    0.30</time>
   <time name="total">    0.34    0.36</time>
   <energy>
    <i name="alphaZ">      4.40202223 </i>
    <i name="ewald">   -265.18101312 </i>
    <i name="hartreedc">     -2.48049636 </i>
    <i name="XCdc">    -17.57348415 </i>
    <i name="pawpsdc">     70.57442263 </i>
    <i name="pawaedc">    -35.48677272 </i>
    <i name="eentropy">     -0.01136502 </i>
    <i name="bandstr">     29.35843192 </i>
    <i name="atom">    206.12349923 </i>
    <i name="e_fr_energy">    -10.27475536 </i>
    <i name="e_wo_entrp">    -10.26339034 </i>
    <i name="e_0_energy">    -10.26907285 </i>
   </energy>
  </scstep>
  <scstep>
   <time name="dav">    0.15    0.15</time>
   <time name="total">    0.17    0.19</time>
   <energy>
    <i name="alphaZ">      4.40202223 </i>
    <i name="ewald">   -265.18101312 </i>
    <i name="hartreedc">     -2.48927859 </i>
    <i name="XCdc">    -17.57317131 </i>
    <i name="pawpsdc">     70.62690210 </i>
    <i name="pawaedc">    -35.54130909 </i>
    <i name="eentropy">     -0.01136719 </i>
    <i name="bandstr">     29.36904191 </i>
    <i name="atom">    206.12349923 </i>
    <i name="e_fr_energy">    -10.27467383 </i>
    <i name="e_wo_entrp">    -10.26330664 </i>
    <i name="e_0_energy">    -10.26899024 </i>
   </energy>
  </scstep>
  <structure>
   <crystal>
    <varray name="basis" >
     <v>      -2.45000000       2.45000000       1.27400000 </v>
     <v>       2.45000000      -2.45000000       1.27400000 </v>
     <v>       2.45000000       2.45000000      -1.27400000 </v>
    </varray>
    <i name="volume">     30.58874000 </i>
    <varray name="rec_basis" >
     <v>       0.00000000       0.20408163       0.39246468 </v>
     <v>       0.20408163       0.00000000       0.39246468 </v>
     <v>       0.20408163       0.20408163      -0.00000000 </v>
    </varray>
   </crystal>
   <varray name="positions" >
    <v>       0.25000000       0.75000000       0.50000000 </v>
    <v>       0.00000000       0.00000000       0.00000000 </v>
   </varray>
  </structure>
  <varray name="forces" >
   <v>      -0.00000000      -0.00000000      -0.00000000 </v>
   <v>       0.00000000       0.00000000       0.00000000 </v>
  </varray>
  <varray name="stress" >
   <v>      -6.15817084      -0.00000000      -0.00000000 </v>
   <v>      -0.00000000      -6.15817084       0.00000000 </v>
   <v>      -0.00000000       0.00000000       2.62791581 </v>
  </varray>
  <energy>
   <i name="e_fr_energy">    -10.27467383 </i>
   <i name="e_wo_entrp">    -10.26899024 </i>
   <i name="e_0_energy">     -0.01136719 </i>
  </energy>
  <time name="totalsc">    1.14    1.67</time>
  <eigenvalues>
   <array>
    <dimension dim="1">band</dimension>
    <dimension dim="2">kpoint</dimension>
    <dimension dim="3">spin</dimension>
    <field>eigene</field>
    <field>occ</field>
    <set>
     <set comment="spin 1">
      <set comment="kpoint 1">
       <r>   -3.6683    1.0000 </r>
       <r>    3.9097    1.0000 </r>
       <r>    7.1257    1.0000 </r>
       <r>    8.6307    0.9999 </r>
       <r>   12.8346    0.0000 </r>
       <r>   13.7222    0.0000 </r>
       <r>   13.9573    0.0000 </r>
       <r>   15.7909    0.0000 </r>
      </set>
      <set comment="kpoint 2">
       <r>   -1.3430    1.0000 </r>
       <r>    4.2820    1.0000 </r>
       <r>    7.4960    1.0000 </r>
       <r>    7.9747    1.0000 </r>
       <r>    9.7333    0.0000 </r>
       <r>   12.3052    0.0000 </r>
       <r>   13.5651    0.0000 </r>
       <r>   14.3676    0.0000 </r>
      </set>
      <set comment="kpoint 3">
       <r>    2.1926    1.0000 </r>
       <r>    2.7356    1.0000 </r>
       <r>    6.0302    1.0000 </r>
       <r>    6.1193    1.0000 </r>
       <r>    9.5781    0.0016 </r>
       <r>   11.3599    0.0000 </r>
       <r>   13.6647    0.0000 </r>
       <r>   14.5155    0.0000 </r>
      </set>
      <set comment="kpoint 4">
       <r>   -4.4510    1.0000 </r>
       <r>    4.5060    1.0000 </r>
       <r>    5.6963    1.0000 </r>
       <r>    8.2458    1.0000 </r>
       <r>   11.4630    0.0000 </r>
       <r>   14.3317    0.0000 </r>
       <r>   17.5038    0.0000 </r>
       <r>   18.1476    0.0000 </r>
      </set>
      <set comment="kpoint 5">
       <r>    2.0967    1.0000 </r>
       <r>    3.9950    1.0000 </r>
       <r>    4.0967    1.0000 </r>
       <r>    5.8481    1.0000 </r>
       <r>   10.9852    0.0000 </r>
       <r>   12.2028    0.0000 </r>
       <r>   13.8106    0.0000 </r>
       <r>   14.3064    0.0000 </r>
      </set>
      <set comment="kpoint 6">
       <r>   -0.0528    1.0000 </r>
       <r>    1.8491    1.0000 </r>
       <r>    6.9977    1.0000 </r>
       <r>    8.3066    1.0000 </r>
       <r>    9.9642    0.0000 </r>
       <r>   11.7825    0.0000 </r>
       <r>   13.5590    0.0000 </r>
       <r>   15.2060    0.0000 </r>
      </set>
      <set comment="kpoint 7">
       <r>   -2.6839    1.0000 </r>
       <r>    1.1684    1.0000 </r>
       <r>    8.0200    1.0000 </r>
       <r>    9.8343    0.0000 </r>
       <r>   11.4452    0.0000 </r>
       <r>   12.9140    0.0000 </r>
       <r>   14.0889    0.0000 </r>
       <r>   14.3249    0.0000 </r>
      </set>
      <set comment="kpoint 8">
       <r>   -3.7915    1.0000 </r>
       <r>    1.9457    1.0000 </r>
       <r>    5.9610    1.0000 </r>
       <r>    9.8341    0.0000 </r>
       <r>   11.4491    0.0000 </r>
       <r>   14.4928    0.0000 </r>
       <r>   15.3363    0.0000 </r>
       <r>   18.9032    0.0000 </r>
      </set>
      <set comment="kpoint 9">
       <r>   -3.3400    1.0000 </r>
       <r>    3.6531    1.0000 </r>
       <r>    5.1800    1.0000 </r>
       <r>   10.6793    0.0000 </r>
       <r>   11.8084    0.0000 </r>
       <r>   13.2445    0.0000 </r>
       <r>   14.0159    0.0000 </r>
       <r>   15.9426    0.0000 </r>
      </set>
      <set comment="kpoint 10">
       <r>   -1.0600    1.0000 </r>
       <r>   -1.0600    1.0000 </r>
       <r>    9.4760    0.0129 </r>
       <r>    9.4760    0.0129 </r>
       <r>   11.3588    0.0000 </r>
       <r>   11.3588    0.0000 </r>
       <r>   13.7220    0.0000 </r>
       <r>   13.7221    0.0000 </r>
      </set>
      <set comment="kpoint 11">
       <r>   -2.4825    1.0000 </r>
       <r>   -0.5479    1.0000 </r>
       <r>    7.1792    1.0000 </r>
       <r>    9.0245    0.8320 </r>
       <r>   11.2462    0.0000 </r>
       <r>   13.0791    0.0000 </r>
       <r>   18.2353    0.0000 </r>
       <r>   18.5326    0.0000 </r>
      </set>
      <set comment="kpoint 12">
       <r>   -2.3609    1.0000 </r>
       <r>    1.4305    1.0000 </r>
       <r>    5.5733    1.0000 </r>
       <r>    9.1776    0.4522 </r>
       <r>   11.3723    0.0000 </r>
       <r>   13.4728    0.0000 </r>
       <r>   15.5389    0.0000 </r>
       <r>   16.7420    0.0000 </r>
      </set>
      <set comment="kpoint 13">
       <r>   -0.6992    1.0000 </r>
       <r>    4.2626    1.0000 </r>
       <r>    5.8829    1.0000 </r>
       <r>    6.4735    1.0000 </r>
       <r>   10.0759    0.0000 </r>
       <r>   12.3040    0.0000 </r>
       <r>   13.3459    0.0000 </r>
       <r>   15.3897    0.0000 </r>
      </set>
      <set comment="kpoint 14">
       <r>   -0.7525    1.0000 </r>
       <r>   -0.7477    1.0000 </r>
       <r>    7.0601    1.0000 </r>
       <r>    7.0788    1.0000 </r>
       <r>   11.2805    0.0000 </r>
       <r>   14.4896    0.0000 </r>
       <r>   15.2865    0.0000 </r>
       <r>   15.3836    0.0000 </r>
      </set>
      <set comment="kpoint 15">
       <r>    0.5714    1.0000 </r>
       <r>    2.4084    1.0000 </r>
       <r>    5.8078    1.0000 </r>
       <r>    6.5598    1.0000 </r>
       <r>    8.2402    1.0000 </r>
       <r>   11.8432    0.0000 </r>
       <r>   15.4001    0.0000 </r>
       <r>   16.9809    0.0000 </r>
      </set>
      <set comment="kpoint 16">
       <r>    1.4742    1.0000 </r>
       <r>    3.4397    1.0000 </r>
       <r>    6.3751    1.0000 </r>
       <r>    7.6106    1.0000 </r>
       <r>    8.1933    1.0000 </r>
       <r>   10.8018    0.0000 </r>
       <r>   11.6411    0.0000 </r>
       <r>   15.6913    0.0000 </r>
      </set>
      <set comment="kpoint 17">
       <r>    1.1688    1.0000 </r>
       <r>    4.8842    1.0000 </r>
       <r>    4.9318    1.0000 </r>
       <r>    7.7326    1.0000 </r>
       <r>    8.7169    0.9991 </r>
       <r>   10.2807    0.0000 </r>
       <r>   12.6530    0.0000 </r>
       <r>   13.4863    0.0000 </r>
      </set>
      <set comment="kpoint 18">
       <r>   -1.9936    1.0000 </r>
       <r>    6.7107    1.0000 </r>
       <r>    7.7216    1.0000 </r>
       <r>    8.4890    1.0000 </r>
       <r>    9.8803    0.0000 </r>
       <r>   11.1315    0.0000 </r>
       <r>   12.3855    0.0000 </r>
       <r>   13.5592    0.0000 </r>
      </set>
      <set comment="kpoint 19">
       <r>   -3.9979    1.0000 </r>
       <r>    6.7516    1.0000 </r>
       <r>    6.8254    1.0000 </r>
       <r>    6.8255    1.0000 </r>
       <r>   11.1637    0.0000 </r>
       <r>   14.5133    0.0000 </r>
       <r>   14.7931    0.0000 </r>
       <r>   16.7256    0.0000 </r>
      </set>
      <set comment="kpoint 20">
       <r>    3.4015    1.0000 </r>
       <r>    3.4015    1.0000 </r>
       <r>    4.0586    1.0000 </r>
       <r>    4.0586    1.0000 </r>
       <r>   13.2260    0.0000 </r>
       <r>   13.2260    0.0000 </r>
       <r>   15.0326    0.0000 </r>
       <r>   15.0326    0.0000 </r>
      </set>
      <set comment="kpoint 21">
       <r>   -3.1387    1.0000 </r>
       <r>    1.9299    1.0000 </r>
       <r>    3.6319    1.0000 </r>
       <r>    8.5458    1.0000 </r>
       <r>   12.8962    0.0000 </r>
       <r>   16.0518    0.0000 </r>
       <r>   17.2851    0.0000 </r>
       <r>   18.2831    0.0000 </r>
      </set>
      <set comment="kpoint 22">
       <r>   -1.8483    1.0000 </r>
       <r>    0.0229    1.0000 </r>
       <r>    4.2728    1.0000 </r>
       <r>    6.0912    1.0000 </r>
       <r>   14.7517    0.0000 </r>
       <r>   16.1954    0.0000 </r>
       <r>   17.8343    0.0000 </r>
       <r>   18.1941    0.0000 </r>
      </set>
      <set comment="kpoint 23">
       <r>   -1.4018    1.0000 </r>
       <r>    1.7127    1.0000 </r>
       <r>    3.4715    1.0000 </r>
       <r>    6.5036    1.0000 </r>
       <r>   10.8310    0.0000 </r>
       <r>   16.4907    0.0000 </r>
       <r>   17.5151    0.0000 </r>
       <r>   18.3915    0.0000 </r>
      </set>
      <set comment="kpoint 24">
       <r>    0.1347    1.0000 </r>
       <r>    0.1451    1.0000 </r>
       <r>    4.3955    1.0000 </r>
       <r>    4.3977    1.0000 </r>
       <r>   10.5713    0.0000 </r>
       <r>   17.6430    0.0000 </r>
       <r>   18.2436    0.0000 </r>
       <r>   19.0216    0.0000 </r>
      </set>
      <set comment="kpoint 25">
       <r>    1.7677    1.0000 </r>
       <r>    2.9865    1.0000 </r>
       <r>    4.7447    1.0000 </r>
       <r>    5.2520    1.0000 </r>
       <r>    6.0038    1.0000 </r>
       <r>   13.9594    0.0000 </r>
       <r>   15.3593    0.0000 </r>
       <r>   17.2565    0.0000 </r>
      </set>
      <set comment="kpoint 26">
       <r>    0.8542    1.0000 </r>
       <r>    5.7745    1.0000 </r>
       <r>    5.8663    1.0000 </r>
       <r>    7.2726    1.0000 </r>
       <r>    7.2726    1.0000 </r>
       <r>   11.5834    0.0000 </r>
       <r>   12.2719    0.0000 </r>
       <r>   12.2720    0.0000 </r>
      </set>
      <set comment="kpoint 27">
       <r>   -0.6298    1.0000 </r>
       <r>    0.6157    1.0000 </r>
       <r>    2.4379    1.0000 </r>
       <r>    3.6663    1.0000 </r>
       <r>   16.2055    0.0000 </r>
       <r>   16.4126    0.0000 </r>
       <r>   19.3900    0.0000 </r>
       <r>   20.4913    0.0000 </r>
      </set>
      <set comment="kpoint 28">
       <r>    1.0485    1.0000 </r>
       <r>    1.0660    1.0000 </r>
       <r>    2.8693    1.0000 </r>
       <r>    2.8693    1.0000 </r>
       <r>   10.2915    0.0000 </r>
       <r>   19.1813    0.0000 </r>
       <r>   20.3251    0.0000 </r>
       <r>   20.3251    0.0000 </r>
      </set>
     </set>
    </set>
   </array>
  </eigenvalues>
  <separator name="orbital magnetization" >
   <v name="MAGDIPOLOUT">      0.00000000      0.00000000      0.00000000</v>
  </separator>
  <dos>
   <i name="efermi">      9.16059650 </i>
   <total>
    <array>
     <dimension dim="1">gridpoints</dimension>
     <dimension dim="2">spin</dimension>
     <field>energy</field>
     <field>total</field>
     <field>integrated</field>
     <set>
      <set comment="spin 1">
       <r>    -6.4510     0.0000     0.0000 </r>
       <r>    -6.3546     0.0000     0.0000 </r>
       <r>    -6.2581     0.0000     0.0000 </r>
       <r>    -6.1616     0.0000     0.0000 </r>
       <r>    -6.0651     0.0000     0.0000 </r>
       <r>    -5.9687     0.0000     0.0000 </r>
       <r>    -5.8722     0.0000     0.0000 </r>
       <r>    -5.7757     0.0000     0.0000 </r>
       <r>    -5.6792     0.0000     0.0000 </r>
       <r>    -5.5828     0.0000     0.0000 </r>
       <r>    -5.4863     0.0000     0.0000 </r>
       <r>    -5.3898     0.0000     0.0000 </r>
       <r>    -5.2933     0.0000     0.0000 </r>
       <r>    -5.1969     0.0000     0.0000 </r>
       <r>    -5.1004     0.0000     0.0000 </r>
       <r>    -5.0039     0.0000     0.0000 </r>
       <r>    -4.9074     0.0002     0.0000 </r>
       <r>    -4.8110     0.0019     0.0002 </r>
       <r>    -4.7145     0.0099     0.0012 </r>
       <r>    -4.6180     0.0336     0.0044 </r>
       <r>    -4.5215     0.0730     0.0114 </r>
       <r>    -4.4251     0.1015     0.0212 </r>
       <r>    -4.3286     0.0915     0.0301 </r>
       <r>    -4.2321     0.0591     0.0358 </r>
       <r>    -4.1356     0.0461     0.0402 </r>
       <r>    -4.0392     0.0744     0.0474 </r>
       <r>    -3.9427     0.1473     0.0616 </r>
       <r>    -3.8462     0.2586     0.0865 </r>
       <r>    -3.7497     0.3625     0.1215 </r>
       <r>    -3.6533     0.3834     0.1585 </r>
       <r>    -3.5568     0.3146     0.1889 </r>
       <r>    -3.4603     0.2483     0.2128 </r>
       <r>    -3.3638     0.2466     0.2366 </r>
       <r>    -3.2674     0.2615     0.2618 </r>
       <r>    -3.1709     0.2338     0.2844 </r>
       <r>    -3.0744     0.1698     0.3008 </r>
       <r>    -2.9780     0.1072     0.3111 </r>
       <r>    -2.8815     0.0892     0.3197 </r>
       <r>    -2.7850     0.1437     0.3336 </r>
       <r>    -2.6885     0.2507     0.3578 </r>
       <r>    -2.5921     0.3713     0.3936 </r>
       <r>    -2.4956     0.4985     0.4417 </r>
       <r>    -2.3991     0.5963     0.4992 </r>
       <r>    -2.3026     0.5683     0.5540 </r>
       <r>    -2.2062     0.4170     0.5943 </r>
       <r>    -2.1097     0.2963     0.6228 </r>
       <r>    -2.0132     0.3026     0.6520 </r>
       <r>    -1.9167     0.3586     0.6866 </r>
       <r>    -1.8203     0.3464     0.7201 </r>
       <r>    -1.7238     0.2536     0.7445 </r>
       <r>    -1.6273     0.1804     0.7619 </r>
       <r>    -1.5308     0.2429     0.7854 </r>
       <r>    -1.4344     0.4431     0.8281 </r>
       <r>    -1.3379     0.6129     0.8872 </r>
       <r>    -1.2414     0.5925     0.9444 </r>
       <r>    -1.1449     0.4490     0.9877 </r>
       <r>    -1.0485     0.3436     1.0209 </r>
       <r>    -0.9520     0.3361     1.0533 </r>
       <r>    -0.8555     0.4523     1.0969 </r>
       <r>    -0.7590     0.6669     1.1612 </r>
       <r>    -0.6626     0.8060     1.2390 </r>
       <r>    -0.5661     0.7237     1.3088 </r>
       <r>    -0.4696     0.4840     1.3555 </r>
       <r>    -0.3731     0.2556     1.3802 </r>
       <r>    -0.2767     0.1677     1.3964 </r>
       <r>    -0.1802     0.2771     1.4231 </r>
       <r>    -0.0837     0.5407     1.4753 </r>
       <r>     0.0128     0.7920     1.5517 </r>
       <r>     0.1092     0.8519     1.6338 </r>
       <r>     0.2057     0.6881     1.7002 </r>
       <r>     0.3022     0.4398     1.7427 </r>
       <r>     0.3987     0.3106     1.7726 </r>
       <r>     0.4951     0.3813     1.8094 </r>
       <r>     0.5916     0.5065     1.8583 </r>
       <r>     0.6881     0.4874     1.9053 </r>
       <r>     0.7846     0.3353     1.9376 </r>
       <r>     0.8810     0.2207     1.9589 </r>
       <r>     0.9775     0.2467     1.9827 </r>
       <r>     1.0740     0.3902     2.0204 </r>
       <r>     1.1705     0.5434     2.0728 </r>
       <r>     1.2669     0.6255     2.1331 </r>
       <r>     1.3634     0.6814     2.1989 </r>
       <r>     1.4599     0.7344     2.2697 </r>
       <r>     1.5563     0.7244     2.3396 </r>
       <r>     1.6528     0.7196     2.4090 </r>
       <r>     1.7493     0.8439     2.4905 </r>
       <r>     1.8458     1.0070     2.5876 </r>
       <r>     1.9422     1.0211     2.6861 </r>
       <r>     2.0387     0.8773     2.7708 </r>
       <r>     2.1352     0.7140     2.8396 </r>
       <r>     2.2317     0.6251     2.9000 </r>
       <r>     2.3281     0.6198     2.9597 </r>
       <r>     2.4246     0.6290     3.0204 </r>
       <r>     2.5211     0.5503     3.0735 </r>
       <r>     2.6176     0.4156     3.1136 </r>
       <r>     2.7140     0.3511     3.1475 </r>
       <r>     2.8105     0.3689     3.1831 </r>
       <r>     2.9070     0.3877     3.2205 </r>
       <r>     3.0035     0.3526     3.2545 </r>
       <r>     3.0999     0.2635     3.2799 </r>
       <r>     3.1964     0.1945     3.2987 </r>
       <r>     3.2929     0.2513     3.3229 </r>
       <r>     3.3894     0.4441     3.3658 </r>
       <r>     3.4858     0.6439     3.4279 </r>
       <r>     3.5823     0.7222     3.4975 </r>
       <r>     3.6788     0.6725     3.5624 </r>
       <r>     3.7753     0.5785     3.6182 </r>
       <r>     3.8717     0.5586     3.6721 </r>
       <r>     3.9682     0.6617     3.7359 </r>
       <r>     4.0647     0.8275     3.8158 </r>
       <r>     4.1612     1.0225     3.9144 </r>
       <r>     4.2576     1.2298     4.0331 </r>
       <r>     4.3541     1.2973     4.1582 </r>
       <r>     4.4506     1.0884     4.2632 </r>
       <r>     4.5471     0.7286     4.3335 </r>
       <r>     4.6435     0.4744     4.3793 </r>
       <r>     4.7400     0.4356     4.4213 </r>
       <r>     4.8365     0.5180     4.4713 </r>
       <r>     4.9330     0.5650     4.5258 </r>
       <r>     5.0294     0.5251     4.5764 </r>
       <r>     5.1259     0.4796     4.6227 </r>
       <r>     5.2224     0.4705     4.6681 </r>
       <r>     5.3189     0.4375     4.7103 </r>
       <r>     5.4153     0.4014     4.7490 </r>
       <r>     5.5118     0.4739     4.7948 </r>
       <r>     5.6083     0.6689     4.8593 </r>
       <r>     5.7048     0.9296     4.9490 </r>
       <r>     5.8012     1.2262     5.0673 </r>
       <r>     5.8977     1.4644     5.2085 </r>
       <r>     5.9942     1.5065     5.3539 </r>
       <r>     6.0907     1.3107     5.4803 </r>
       <r>     6.1871     0.9712     5.5740 </r>
       <r>     6.2836     0.7106     5.6426 </r>
       <r>     6.3801     0.7173     5.7118 </r>
       <r>     6.4765     0.9151     5.8001 </r>
       <r>     6.5730     1.0379     5.9002 </r>
       <r>     6.6695     0.9492     5.9918 </r>
       <r>     6.7660     0.7745     6.0665 </r>
       <r>     6.8624     0.7254     6.1365 </r>
       <r>     6.9589     0.8930     6.2226 </r>
       <r>     7.0554     1.1345     6.3321 </r>
       <r>     7.1519     1.1780     6.4457 </r>
       <r>     7.2483     0.9559     6.5380 </r>
       <r>     7.3448     0.6985     6.6053 </r>
       <r>     7.4413     0.6317     6.6663 </r>
       <r>     7.5378     0.7297     6.7367 </r>
       <r>     7.6342     0.8219     6.8160 </r>
       <r>     7.7307     0.8180     6.8949 </r>
       <r>     7.8272     0.7682     6.9690 </r>
       <r>     7.9237     0.7829     7.0445 </r>
       <r>     8.0201     0.8920     7.1306 </r>
       <r>     8.1166     1.0508     7.2320 </r>
       <r>     8.2131     1.2196     7.3496 </r>
       <r>     8.3096     1.2714     7.4723 </r>
       <r>     8.4060     1.1093     7.5793 </r>
       <r>     8.5025     0.8773     7.6639 </r>
       <r>     8.5990     0.7305     7.7344 </r>
       <r>     8.6955     0.6218     7.7944 </r>
       <r>     8.7919     0.4758     7.8403 </r>
       <r>     8.8884     0.3544     7.8745 </r>
       <r>     8.9849     0.3619     7.9094 </r>
       <r>     9.0814     0.4779     7.9555 </r>
       <r>     9.1778     0.5621     8.0097 </r>
       <r>     9.2743     0.5219     8.0601 </r>
       <r>     9.3708     0.4384     8.1024 </r>
       <r>     9.4673     0.4529     8.1461 </r>
       <r>     9.5637     0.5890     8.2029 </r>
       <r>     9.6602     0.8060     8.2807 </r>
       <r>     9.7567     1.0706     8.3840 </r>
       <r>     9.8532     1.2764     8.5071 </r>
       <r>     9.9496     1.2767     8.6303 </r>
       <r>    10.0461     1.0540     8.7319 </r>
       <r>    10.1426     0.7527     8.8046 </r>
       <r>    10.2391     0.5263     8.8553 </r>
       <r>    10.3355     0.4012     8.8940 </r>
       <r>    10.4320     0.3459     8.9274 </r>
       <r>    10.5285     0.3802     8.9641 </r>
       <r>    10.6250     0.5043     9.0127 </r>
       <r>    10.7214     0.6427     9.0747 </r>
       <r>    10.8179     0.7145     9.1437 </r>
       <r>    10.9144     0.6998     9.2112 </r>
       <r>    11.0108     0.6709     9.2759 </r>
       <r>    11.1073     0.7572     9.3489 </r>
       <r>    11.2038     1.0400     9.4493 </r>
       <r>    11.3003     1.4435     9.5885 </r>
       <r>    11.3967     1.6993     9.7525 </r>
       <r>    11.4932     1.5883     9.9057 </r>
       <r>    11.5897     1.2751    10.0287 </r>
       <r>    11.6862     1.1251    10.1373 </r>
       <r>    11.7826     1.1803    10.2512 </r>
       <r>    11.8791     1.1280    10.3600 </r>
       <r>    11.9756     0.8333    10.4404 </r>
       <r>    12.0721     0.5809    10.4964 </r>
       <r>    12.1685     0.6537    10.5595 </r>
       <r>    12.2650     0.9376    10.6499 </r>
       <r>    12.3615     1.0620    10.7524 </r>
       <r>    12.4580     0.8652    10.8358 </r>
       <r>    12.5544     0.5698    10.8908 </r>
       <r>    12.6509     0.4332    10.9326 </r>
       <r>    12.7474     0.4767    10.9786 </r>
       <r>    12.8439     0.5883    11.0353 </r>
       <r>    12.9403     0.6541    11.0985 </r>
       <r>    13.0368     0.6413    11.1603 </r>
       <r>    13.1333     0.6315    11.2212 </r>
       <r>    13.2298     0.7210    11.2908 </r>
       <r>    13.3262     0.9660    11.3840 </r>
       <r>    13.4227     1.3952    11.5186 </r>
       <r>    13.5192     1.8724    11.6992 </r>
       <r>    13.6157     2.0714    11.8991 </r>
       <r>    13.7121     1.8536    12.0779 </r>
       <r>    13.8086     1.4603    12.2188 </r>
       <r>    13.9051     1.1809    12.3327 </r>
       <r>    14.0016     1.0506    12.4341 </r>
       <r>    14.0980     0.9559    12.5263 </r>
       <r>    14.1945     0.9309    12.6161 </r>
       <r>    14.2910     1.1000    12.7222 </r>
       <r>    14.3875     1.3436    12.8518 </r>
       <r>    14.4839     1.3732    12.9843 </r>
       <r>    14.5804     1.1108    13.0915 </r>
       <r>    14.6769     0.7508    13.1639 </r>
       <r>    14.7734     0.4870    13.2109 </r>
       <r>    14.8698     0.3417    13.2439 </r>
       <r>    14.9663     0.2980    13.2726 </r>
       <r>    15.0628     0.4172    13.3129 </r>
       <r>    15.1593     0.7627    13.3864 </r>
       <r>    15.2557     1.2803    13.5100 </r>
       <r>    15.3522     1.7278    13.6767 </r>
       <r>    15.4487     1.8102    13.8513 </r>
       <r>    15.5452     1.5012    13.9961 </r>
       <r>    15.6416     1.0790    14.1002 </r>
       <r>    15.7381     0.7812    14.1756 </r>
       <r>    15.8346     0.6265    14.2360 </r>
       <r>    15.9310     0.5466    14.2888 </r>
       <r>    16.0275     0.5060    14.3376 </r>
       <r>    16.1240     0.4938    14.3852 </r>
       <r>    16.2205     0.4827    14.4318 </r>
       <r>    16.3169     0.4502    14.4752 </r>
       <r>    16.4134     0.4237    14.5161 </r>
       <r>    16.5099     0.4302    14.5576 </r>
       <r>    16.6064     0.4728    14.6032 </r>
       <r>    16.7028     0.5528    14.6565 </r>
       <r>    16.7993     0.6220    14.7165 </r>
       <r>    16.8958     0.6321    14.7775 </r>
       <r>    16.9923     0.5941    14.8348 </r>
       <r>    17.0887     0.5218    14.8852 </r>
       <r>    17.1852     0.4555    14.9291 </r>
       <r>    17.2817     0.4399    14.9716 </r>
       <r>    17.3782     0.4589    15.0158 </r>
       <r>    17.4746     0.4977    15.0639 </r>
       <r>    17.5711     0.5349    15.1155 </r>
       <r>    17.6676     0.5177    15.1654 </r>
       <r>    17.7641     0.4442    15.2083 </r>
       <r>    17.8605     0.3592    15.2429 </r>
       <r>    17.9570     0.3125    15.2731 </r>
       <r>    18.0535     0.3925    15.3109 </r>
       <r>    18.1500     0.6382    15.3725 </r>
       <r>    18.2464     0.8867    15.4580 </r>
       <r>    18.3429     0.9220    15.5470 </r>
       <r>    18.4394     0.7505    15.6194 </r>
       <r>    18.5359     0.5257    15.6701 </r>
       <r>    18.6323     0.3375    15.7027 </r>
       <r>    18.7288     0.2302    15.7249 </r>
       <r>    18.8253     0.2446    15.7485 </r>
       <r>    18.9218     0.3404    15.7813 </r>
       <r>    19.0182     0.3975    15.8197 </r>
       <r>    19.1147     0.3491    15.8533 </r>
       <r>    19.2112     0.2478    15.8772 </r>
       <r>    19.3077     0.1745    15.8941 </r>
       <r>    19.4041     0.1397    15.9075 </r>
       <r>    19.5006     0.1046    15.9176 </r>
       <r>    19.5971     0.0581    15.9232 </r>
       <r>    19.6936     0.0217    15.9253 </r>
       <r>    19.7900     0.0053    15.9258 </r>
       <r>    19.8865     0.0012    15.9260 </r>
       <r>    19.9830     0.0028    15.9262 </r>
       <r>    20.0795     0.0135    15.9275 </r>
       <r>    20.1759     0.0444    15.9318 </r>
       <r>    20.2724     0.0986    15.9413 </r>
       <r>    20.3689     0.1533    15.9561 </r>
       <r>    20.4653     0.1734    15.9728 </r>
       <r>    20.5618     0.1449    15.9868 </r>
       <r>    20.6583     0.0875    15.9953 </r>
       <r>    20.7548     0.0367    15.9988 </r>
       <r>    20.8512     0.0103    15.9998 </r>
       <r>    20.9477     0.0019    16.0000 </r>
       <r>    21.0442     0.0002    16.0000 </r>
       <r>    21.1407     0.0000    16.0000 </r>
       <r>    21.2371     0.0000    16.0000 </r>
       <r>    21.3336     0.0000    16.0000 </r>
       <r>    21.4301     0.0000    16.0000 </r>
       <r>    21.5266     0.0000    16.0000 </r>
       <r>    21.6230     0.0000    16.0000 </r>
       <r>    21.7195     0.0000    16.0000 </r>
       <r>    21.8160     0.0000    16.0000 </r>
       <r>    21.9125     0.0000    16.0000 </r>
       <r>    22.0089     0.0000    16.0000 </r>
       <r>    22.1054     0.0000    16.0000 </r>
       <r>    22.2019     0.0000    16.0000 </r>
       <r>    22.2984     0.0000    16.0000 </r>
       <r>    22.3948     0.0000    16.0000 </r>
       <r>    22.4913     0.0000    16.0000 </r>
      </set>
     </set>
    </array>
   </total>
  </dos>
 </calculation>
 <structure name="finalpos" >
  <crystal>
   <varray name="basis" >
    <v>      -2.45000000       2.45000000       1.27400000 </v>
    <v>       2.45000000      -2.45000000       1.27400000 </v>
    <v>       2.45000000       2.45000000      -1.27400000 </v>
   </varray>
   <i name="volume">     30.58874000 </i>
   <varray name="rec_basis" >
    <v>       0.00000000       0.20408163       0.39246468 </v>
    <v>       0.20408163       0.00000000       0.39246468 </v>
    <v>       0.20408163       0.20408163      -0.00000000 </v>
   </varray>
  </crystal>
  <varray name="positions" >
   <v>       0.25000000       0.75000000       0.50000000 </v>
   <v>       0.00000000       0.00000000       0.00000000 </v>
  </varray>
 </structure>
</modeling>
