   2   2   0   0
  0.2001288E+02  0.3839590E-09  0.3839590E-09  0.3839590E-09  0.5000000E-15
  1.000000000000000E-004
  CAR 
 unknown system                          
     16.79108754     -8.20112147  301      5.96663186      1.00000000
     -8.201  0.0000E+00  0.0000E+00
     -8.118  0.0000E+00  0.0000E+00
     -8.035  0.0000E+00  0.0000E+00
     -7.951  0.0000E+00  0.0000E+00
     -7.868  0.0000E+00  0.0000E+00
     -7.785  0.0000E+00  0.0000E+00
     -7.701  0.0000E+00  0.0000E+00
     -7.618  0.0000E+00  0.0000E+00
     -7.535  0.0000E+00  0.0000E+00
     -7.451  0.0000E+00  0.0000E+00
     -7.368  0.2590E-18  0.2158E-19
     -7.285  0.4222E-16  0.3539E-17
     -7.201  0.3488E-14  0.2941E-15
     -7.118  0.2046E-12  0.1734E-13
     -7.035  0.8527E-11  0.7277E-12
     -6.952  0.2526E-09  0.2177E-10
     -6.868  0.5324E-08  0.4653E-09
     -6.785  0.7987E-07  0.7119E-08
     -6.702  0.8535E-06  0.7822E-07
     -6.618  0.6511E-05  0.6206E-06
     -6.535  0.3560E-04  0.3586E-05
     -6.452  0.1411E-03  0.1534E-04
     -6.368  0.4175E-03  0.5012E-04
     -6.285  0.9894E-03  0.1325E-03
     -6.202  0.2105E-02  0.3079E-03
     -6.118  0.4324E-02  0.6681E-03
     -6.035  0.8094E-02  0.1342E-02
     -5.952  0.1244E-01  0.2378E-02
     -5.869  0.1483E-01  0.3614E-02
     -5.785  0.1394E-01  0.4775E-02
     -5.702  0.1186E-01  0.5763E-02
     -5.619  0.1201E-01  0.6763E-02
     -5.535  0.1532E-01  0.8039E-02
     -5.452  0.2054E-01  0.9750E-02
     -5.369  0.2711E-01  0.1201E-01
     -5.285  0.3388E-01  0.1483E-01
     -5.202  0.3624E-01  0.1785E-01
     -5.119  0.3054E-01  0.2039E-01
     -5.035  0.2020E-01  0.2208E-01
     -4.952  0.1264E-01  0.2313E-01
     -4.869  0.1225E-01  0.2415E-01
     -4.786  0.1920E-01  0.2575E-01
     -4.702  0.3154E-01  0.2838E-01
     -4.619  0.4475E-01  0.3211E-01
     -4.536  0.5220E-01  0.3645E-01
     -4.452  0.5108E-01  0.4071E-01
     -4.369  0.4610E-01  0.4455E-01
     -4.286  0.4286E-01  0.4812E-01
     -4.202  0.4075E-01  0.5152E-01
     -4.119  0.3742E-01  0.5463E-01
     -4.036  0.3517E-01  0.5756E-01
     -3.952  0.3730E-01  0.6067E-01
     -3.869  0.4317E-01  0.6427E-01
     -3.786  0.5079E-01  0.6850E-01
     -3.703  0.5935E-01  0.7344E-01
     -3.619  0.6740E-01  0.7906E-01
     -3.536  0.7145E-01  0.8501E-01
     -3.453  0.6653E-01  0.9055E-01
     -3.369  0.5172E-01  0.9486E-01
     -3.286  0.3547E-01  0.9782E-01
     -3.203  0.2946E-01  0.1003E+00
     -3.119  0.3689E-01  0.1033E+00
     -3.036  0.4930E-01  0.1075E+00
     -2.953  0.5388E-01  0.1119E+00
     -2.869  0.4516E-01  0.1157E+00
     -2.786  0.3026E-01  0.1182E+00
     -2.703  0.2086E-01  0.1200E+00
     -2.620  0.2138E-01  0.1217E+00
     -2.536  0.2620E-01  0.1239E+00
     -2.453  0.2748E-01  0.1262E+00
     -2.370  0.2391E-01  0.1282E+00
     -2.286  0.1980E-01  0.1299E+00
     -2.203  0.1763E-01  0.1313E+00
     -2.120  0.1645E-01  0.1327E+00
     -2.036  0.1578E-01  0.1340E+00
     -1.953  0.1555E-01  0.1353E+00
     -1.870  0.1422E-01  0.1365E+00
     -1.786  0.1123E-01  0.1374E+00
     -1.703  0.9513E-02  0.1382E+00
     -1.620  0.1272E-01  0.1393E+00
     -1.537  0.2053E-01  0.1410E+00
     -1.453  0.2837E-01  0.1434E+00
     -1.370  0.3400E-01  0.1462E+00
     -1.287  0.4287E-01  0.1498E+00
     -1.203  0.6036E-01  0.1548E+00
     -1.120  0.7948E-01  0.1614E+00
     -1.037  0.8649E-01  0.1686E+00
     -0.953  0.7965E-01  0.1752E+00
     -0.870  0.7124E-01  0.1812E+00
     -0.787  0.6822E-01  0.1869E+00
     -0.703  0.6348E-01  0.1922E+00
     -0.620  0.5063E-01  0.1964E+00
     -0.537  0.3584E-01  0.1994E+00
     -0.454  0.2883E-01  0.2018E+00
     -0.370  0.3084E-01  0.2043E+00
     -0.287  0.3581E-01  0.2073E+00
     -0.204  0.3829E-01  0.2105E+00
     -0.120  0.3769E-01  0.2136E+00
     -0.037  0.3569E-01  0.2166E+00
      0.046  0.3158E-01  0.2192E+00
      0.130  0.2462E-01  0.2213E+00
      0.213  0.1878E-01  0.2229E+00
      0.296  0.1909E-01  0.2244E+00
      0.380  0.2431E-01  0.2265E+00
      0.463  0.2788E-01  0.2288E+00
      0.546  0.2686E-01  0.2310E+00
      0.629  0.2541E-01  0.2332E+00
      0.713  0.2692E-01  0.2354E+00
      0.796  0.2782E-01  0.2377E+00
      0.879  0.2374E-01  0.2397E+00
      0.963  0.1680E-01  0.2411E+00
      1.046  0.1210E-01  0.2421E+00
      1.129  0.1096E-01  0.2430E+00
      1.213  0.1205E-01  0.2440E+00
      1.296  0.1669E-01  0.2454E+00
      1.379  0.2836E-01  0.2478E+00
      1.463  0.4592E-01  0.2516E+00
      1.546  0.6094E-01  0.2567E+00
      1.629  0.6518E-01  0.2621E+00
      1.712  0.6042E-01  0.2671E+00
      1.796  0.5884E-01  0.2720E+00
      1.879  0.7103E-01  0.2780E+00
      1.962  0.9265E-01  0.2857E+00
      2.046  0.1056E+00  0.2945E+00
      2.129  0.9563E-01  0.3024E+00
      2.212  0.6877E-01  0.3082E+00
      2.296  0.4661E-01  0.3120E+00
      2.379  0.4809E-01  0.3161E+00
      2.462  0.7428E-01  0.3222E+00
      2.546  0.1050E+00  0.3310E+00
      2.629  0.1138E+00  0.3405E+00
      2.712  0.9486E-01  0.3484E+00
      2.795  0.7017E-01  0.3542E+00
      2.879  0.6302E-01  0.3595E+00
      2.962  0.7303E-01  0.3655E+00
      3.045  0.8288E-01  0.3725E+00
      3.129  0.8455E-01  0.3795E+00
      3.212  0.8918E-01  0.3869E+00
      3.295  0.1069E+00  0.3958E+00
      3.379  0.1267E+00  0.4064E+00
      3.462  0.1279E+00  0.4170E+00
      3.545  0.1061E+00  0.4259E+00
      3.629  0.7779E-01  0.4324E+00
      3.712  0.6166E-01  0.4375E+00
      3.795  0.6367E-01  0.4428E+00
      3.878  0.7913E-01  0.4494E+00
      3.962  0.9917E-01  0.4577E+00
      4.045  0.1142E+00  0.4672E+00
      4.128  0.1158E+00  0.4768E+00
      4.212  0.9942E-01  0.4851E+00
      4.295  0.7092E-01  0.4910E+00
      4.378  0.4582E-01  0.4948E+00
      4.462  0.3621E-01  0.4978E+00
      4.545  0.4152E-01  0.5013E+00
      4.628  0.5279E-01  0.5057E+00
      4.712  0.5947E-01  0.5107E+00
      4.795  0.5452E-01  0.5152E+00
      4.878  0.3933E-01  0.5185E+00
      4.961  0.2267E-01  0.5204E+00
      5.045  0.1320E-01  0.5215E+00
      5.128  0.1399E-01  0.5226E+00
      5.211  0.2188E-01  0.5244E+00
      5.295  0.2913E-01  0.5269E+00
      5.378  0.2868E-01  0.5293E+00
      5.461  0.2082E-01  0.5310E+00
      5.545  0.1190E-01  0.5320E+00
      5.628  0.6505E-02  0.5325E+00
      5.711  0.4215E-02  0.5329E+00
      5.795  0.2876E-02  0.5331E+00
      5.878  0.1648E-02  0.5333E+00
      5.961  0.8482E-03  0.5333E+00
      6.044  0.9026E-03  0.5334E+00
      6.128  0.2075E-02  0.5336E+00
      6.211  0.4297E-02  0.5339E+00
      6.294  0.6880E-02  0.5345E+00
      6.378  0.9336E-02  0.5353E+00
      6.461  0.1260E-01  0.5363E+00
      6.544  0.1766E-01  0.5378E+00
      6.628  0.2312E-01  0.5397E+00
      6.711  0.2714E-01  0.5420E+00
      6.794  0.3080E-01  0.5446E+00
      6.878  0.3569E-01  0.5475E+00
      6.961  0.4051E-01  0.5509E+00
      7.044  0.4363E-01  0.5545E+00
      7.127  0.4478E-01  0.5583E+00
      7.211  0.4205E-01  0.5618E+00
      7.294  0.3395E-01  0.5646E+00
      7.377  0.2484E-01  0.5667E+00
      7.461  0.2169E-01  0.5685E+00
      7.544  0.2809E-01  0.5708E+00
      7.627  0.4572E-01  0.5746E+00
      7.711  0.7491E-01  0.5809E+00
      7.794  0.1072E+00  0.5898E+00
      7.877  0.1245E+00  0.6002E+00
      7.961  0.1158E+00  0.6098E+00
      8.044  0.9269E-01  0.6175E+00
      8.127  0.8049E-01  0.6242E+00
      8.210  0.9245E-01  0.6319E+00
      8.294  0.1162E+00  0.6416E+00
      8.377  0.1273E+00  0.6522E+00
      8.460  0.1155E+00  0.6619E+00
      8.544  0.9422E-01  0.6697E+00
      8.627  0.8349E-01  0.6767E+00
      8.710  0.8739E-01  0.6839E+00
      8.794  0.9112E-01  0.6915E+00
      8.877  0.8355E-01  0.6985E+00
      8.960  0.7382E-01  0.7046E+00
      9.044  0.7800E-01  0.7111E+00
      9.127  0.9649E-01  0.7192E+00
      9.210  0.1141E+00  0.7287E+00
      9.293  0.1220E+00  0.7388E+00
      9.377  0.1292E+00  0.7496E+00
      9.460  0.1444E+00  0.7616E+00
      9.543  0.1575E+00  0.7748E+00
      9.627  0.1523E+00  0.7874E+00
      9.710  0.1295E+00  0.7982E+00
      9.793  0.1038E+00  0.8069E+00
      9.877  0.8267E-01  0.8138E+00
      9.960  0.6306E-01  0.8190E+00
     10.043  0.4567E-01  0.8228E+00
     10.126  0.3940E-01  0.8261E+00
     10.210  0.4892E-01  0.8302E+00
     10.293  0.6707E-01  0.8358E+00
     10.376  0.8225E-01  0.8426E+00
     10.460  0.8872E-01  0.8500E+00
     10.543  0.8671E-01  0.8572E+00
     10.626  0.7669E-01  0.8636E+00
     10.710  0.5904E-01  0.8685E+00
     10.793  0.3868E-01  0.8718E+00
     10.876  0.2552E-01  0.8739E+00
     10.960  0.2890E-01  0.8763E+00
     11.043  0.5057E-01  0.8805E+00
     11.126  0.8022E-01  0.8872E+00
     11.209  0.1008E+00  0.8956E+00
     11.293  0.1045E+00  0.9043E+00
     11.376  0.9848E-01  0.9125E+00
     11.459  0.9105E-01  0.9201E+00
     11.543  0.8136E-01  0.9269E+00
     11.626  0.7006E-01  0.9327E+00
     11.709  0.6689E-01  0.9383E+00
     11.793  0.7770E-01  0.9447E+00
     11.876  0.9440E-01  0.9526E+00
     11.959  0.1053E+00  0.9614E+00
     12.043  0.1094E+00  0.9705E+00
     12.126  0.1156E+00  0.9801E+00
     12.209  0.1279E+00  0.9908E+00
     12.292  0.1341E+00  0.1002E+01
     12.376  0.1199E+00  0.1012E+01
     12.459  0.8842E-01  0.1019E+01
     12.542  0.5475E-01  0.1024E+01
     12.626  0.2905E-01  0.1026E+01
     12.709  0.1355E-01  0.1027E+01
     12.792  0.7068E-02  0.1028E+01
     12.876  0.6688E-02  0.1029E+01
     12.959  0.8335E-02  0.1029E+01
     13.042  0.8576E-02  0.1030E+01
     13.126  0.6778E-02  0.1031E+01
     13.209  0.5020E-02  0.1031E+01
     13.292  0.5353E-02  0.1031E+01
     13.375  0.7494E-02  0.1032E+01
     13.459  0.9452E-02  0.1033E+01
     13.542  0.1058E-01  0.1034E+01
     13.625  0.1321E-01  0.1035E+01
     13.709  0.1918E-01  0.1036E+01
     13.792  0.2524E-01  0.1038E+01
     13.875  0.2559E-01  0.1041E+01
     13.959  0.1977E-01  0.1042E+01
     14.042  0.1427E-01  0.1043E+01
     14.125  0.1552E-01  0.1045E+01
     14.209  0.2346E-01  0.1047E+01
     14.292  0.3183E-01  0.1049E+01
     14.375  0.3430E-01  0.1052E+01
     14.458  0.3039E-01  0.1055E+01
     14.542  0.2512E-01  0.1057E+01
     14.625  0.2349E-01  0.1059E+01
     14.708  0.2542E-01  0.1061E+01
     14.792  0.2594E-01  0.1063E+01
     14.875  0.2127E-01  0.1065E+01
     14.958  0.1316E-01  0.1066E+01
     15.042  0.6019E-02  0.1066E+01
     15.125  0.2016E-02  0.1067E+01
     15.208  0.4914E-03  0.1067E+01
     15.292  0.8677E-04  0.1067E+01
     15.375  0.1105E-04  0.1067E+01
     15.458  0.1012E-05  0.1067E+01
     15.541  0.6639E-07  0.1067E+01
     15.625  0.3114E-08  0.1067E+01
     15.708  0.1043E-09  0.1067E+01
     15.791  0.2488E-11  0.1067E+01
     15.875  0.4224E-13  0.1067E+01
     15.958  0.5098E-15  0.1067E+01
     16.041  0.0000E+00  0.1067E+01
     16.125  0.0000E+00  0.1067E+01
     16.208  0.0000E+00  0.1067E+01
     16.291  0.0000E+00  0.1067E+01
     16.375  0.0000E+00  0.1067E+01
     16.458  0.0000E+00  0.1067E+01
     16.541  0.0000E+00  0.1067E+01
     16.624  0.0000E+00  0.1067E+01
     16.708  0.0000E+00  0.1067E+01
     16.791  0.0000E+00  0.1067E+01
