       N       E                     dE             d eps       ncg     rms          rms(c)
DAV:   1    -0.423469456545E+01   -0.42347E+01   -0.18322E+03   344   0.307E+02
DAV:   2    -0.108686461718E+02   -0.66340E+01   -0.64336E+01   512   0.471E+01
DAV:   3    -0.109170001486E+02   -0.48354E-01   -0.48354E-01   352   0.470E+00
DAV:   4    -0.109170969370E+02   -0.96788E-04   -0.96789E-04   560   0.219E-01
DAV:   5    -0.109170969448E+02   -0.78266E-08   -0.78489E-08   344   0.191E-03    0.297E+00
DAV:   6    -0.107921148786E+02    0.12498E+00   -0.77263E-02   400   0.141E+00    0.176E+00
DAV:   7    -0.107333769394E+02    0.58738E-01   -0.14454E-01   392   0.203E+00    0.147E-01
DAV:   8    -0.107346428782E+02   -0.12659E-02   -0.33825E-03   368   0.401E-01    0.242E-02
DAV:   9    -0.107347330128E+02   -0.90135E-04   -0.84482E-05   200   0.711E-02
   1 F= -.10734733E+02 E0= -.10734586E+02  d E =-.107347E+02
       N       E                     dE             d eps       ncg     rms          rms(c)
DAV:   1    -0.107442189696E+02   -0.95761E-02   -0.26687E-01   360   0.282E+00    0.327E-01
DAV:   2    -0.107396769041E+02    0.45421E-02   -0.35545E-03   384   0.374E-01    0.185E-01
DAV:   3    -0.107372731896E+02    0.24037E-02   -0.47646E-03   376   0.345E-01    0.230E-02
DAV:   4    -0.107372599211E+02    0.13268E-04   -0.36915E-05   192   0.483E-02
   2 F= -.10737260E+02 E0= -.10737172E+02  d E =-.252691E-02
       N       E                     dE             d eps       ncg     rms          rms(c)
DAV:   1    -0.107408803966E+02   -0.36072E-02   -0.43991E-02   352   0.116E+00    0.133E-01
DAV:   2    -0.107401405545E+02    0.73984E-03   -0.57802E-04   368   0.151E-01    0.757E-02
DAV:   3    -0.107397587951E+02    0.38176E-03   -0.76649E-04   264   0.140E-01
   3 F= -.10739759E+02 E0= -.10739652E+02  d E =-.502578E-02
