 vasp.5.4.4.18Apr17-6-g9f103f2a35 (build Dec 09 2018 21:25:21) complex          
  
 executed on IFC18.0.1.163_CrayMP date 2019.03.20  09:44:07
 running on    8 total cores
 distrk:  each k-point on    8 cores,    1 groups
 distr:  one band on NCORES_PER_BAND=   1 cores,    8 groups


--------------------------------------------------------------------------------------------------------


 INCAR:
 POTCAR:   PAW_PBE Si 05Jan2001                   

 ----------------------------------------------------------------------------- 
|                                                                             |
|           W    W    AA    RRRRR   N    N  II  N    N   GGGG   !!!           |
|           W    W   A  A   R    R  NN   N  II  NN   N  G    G  !!!           |
|           W    W  A    A  R    R  N N  N  II  N N  N  G       !!!           |
|           W WW W  AAAAAA  RRRRR   N  N N  II  N  N N  G  GGG   !            |
|           WW  WW  A    A  R   R   N   NN  II  N   NN  G    G                |
|           W    W  A    A  R    R  N    N  II  N    N   GGGG   !!!           |
|                                                                             |
|      For optimal performance we recommend to set                            |
|        NCORE= 4 - approx SQRT( number of cores)                             |
|      NCORE specifies how many cores store one orbital (NPAR=cpu/NCORE).     |
|      This setting can  greatly improve the performance of VASP for DFT.     |
|      The default,   NCORE=1            might be grossly inefficient         |
|      on modern multi-core architectures or massively parallel machines.     |
|      Do your own testing !!!!                                               |
|      Unfortunately you need to use the default for GW and RPA calculations. |
|      (for HF NCORE is supported but not extensively tested yet)             |
|                                                                             |
 ----------------------------------------------------------------------------- 

 POTCAR:   PAW_PBE Si 05Jan2001                   
   VRHFIN =Si: s2p2                                                             
   LEXCH  = PE                                                                  
   EATOM  =   103.0669 eV,    7.5752 Ry                                         
                                                                                
   TITEL  = PAW_PBE Si 05Jan2001                                                
   LULTRA =        F    use ultrasoft PP ?                                      
   IUNSCR =        1    unscreen: 0-lin 1-nonlin 2-no                           
   RPACOR =    1.500    partial core radius                                     
   POMASS =   28.085; ZVAL   =    4.000    mass and valenz                      
   RCORE  =    1.900    outmost cutoff radius                                   
   RWIGS  =    2.480; RWIGS  =    1.312    wigner-seitz radius (au A)           
   ENMAX  =  245.345; ENMIN  =  184.009 eV                                      
   ICORE  =        2    local potential                                         
   LCOR   =        T    correct aug charges                                     
   LPAW   =        T    paw PP                                                  
   EAUG   =  322.069                                                            
   DEXC   =    -.007                                                            
   RMAX   =    2.944    core radius for proj-oper                               
   RAUG   =    1.300    factor for augmentation sphere                          
   RDEP   =    1.993    radius for radial grids                                 
   QCUT   =   -4.246; QGAM   =    8.493    optimization parameters              
                                                                                
   Description                                                                  
     l     E      TYP  RCUT    TYP  RCUT                                        
     0   .000     23  1.900                                                     
     0   .000     23  1.900                                                     
     1   .000     23  1.900                                                     
     1   .000     23  1.900                                                     
     2   .000      7  1.900                                                     
  local pseudopotential read in
  partial core-charges read in
  atomic valenz-charges read in
  non local Contribution for L=           0  read in
    real space projection operators read in
  non local Contribution for L=           0  read in
    real space projection operators read in
  non local Contribution for L=           1  read in
    real space projection operators read in
  non local Contribution for L=           1  read in
    real space projection operators read in
    PAW grid and wavefunctions read in
 
   number of l-projection  operators is LMAX  =           4
   number of lm-projection operators is LMMAX =           8
 
 PAW_PBE Si 05Jan2001                   :
 energy of atom  1       EATOM= -103.0669
 kinetic energy error for atom=    0.0210 (will be added to EATOM!!)
 
 
 POSCAR: Si2                                     
  positions in direct lattice
  No initial velocities read in
 exchange correlation table for  LEXCH =        8
   RHO(1)=    0.500       N(1)  =     2000
   RHO(2)=  100.500       N(2)  =     4000
 


--------------------------------------------------------------------------------------------------------


 ion  position               nearest neighbor table
   1  0.500  0.500  0.500-   2 2.35   2 2.35   2 2.35   2 2.35
   2  0.750  0.750  0.750-   1 2.35   1 2.35   1 2.35   1 2.35
 
  LATTYP: Found a face centered cubic cell.
 ALAT       =     5.4300000000
  
  Lattice vectors:
  
 A1 = (   0.0000000000,   2.7150000000,   2.7150000000)
 A2 = (   2.7150000000,   0.0000000000,   2.7150000000)
 A3 = (   2.7150000000,   2.7150000000,   0.0000000000)


Analysis of symmetry for initial positions (statically):
=====================================================================
 Subroutine PRICEL returns:
 Original cell was already a primitive cell.
 

 Routine SETGRP: Setting up the symmetry group for a 
 face centered cubic supercell.


 Subroutine GETGRP returns: Found 48 space group operations
 (whereof 24 operations were pure point group operations)
 out of a pool of 48 trial point group operations.


The static configuration has the point symmetry T_d .
 The point group associated with its full space group is O_h .


Analysis of symmetry for dynamics (positions and initial velocities):
=====================================================================
 Subroutine PRICEL returns:
 Original cell was already a primitive cell.
 

 Routine SETGRP: Setting up the symmetry group for a 
 face centered cubic supercell.


 Subroutine GETGRP returns: Found 48 space group operations
 (whereof 24 operations were pure point group operations)
 out of a pool of 48 trial point group operations.


The dynamic configuration has the point symmetry T_d .
 The point group associated with its full space group is O_h .


 Subroutine INISYM returns: Found 48 space group operations
 (whereof 24 operations are pure point group operations),
 and found     1 'primitive' translations

 
 
 KPOINTS: Automatic kpoint scheme                 

Automatic generation of k-mesh.
Space group operators:
 irot       det(A)        alpha          n_x          n_y          n_z        tau_x        tau_y        tau_z
    1     1.000000     0.000001     1.000000     0.000000     0.000000     0.000000     0.000000     0.000000
    2     1.000000   120.000000    -0.577350    -0.577350    -0.577350     0.000000     0.000000     0.000000
    3     1.000000   120.000000     0.577350     0.577350     0.577350     0.000000     0.000000     0.000000
    4    -1.000000    90.000000    -0.000000    -0.000000    -1.000000     0.000000     0.000000     0.000000
    5    -1.000000   180.000000    -0.000000     0.707107     0.707107     0.000000     0.000000     0.000000
    6    -1.000000    90.000000    -0.000000     1.000000    -0.000000     0.000000     0.000000     0.000000
    7     1.000000   180.000000     0.000000     0.000000    -1.000000     0.000000     0.000000     0.000000
    8     1.000000   120.000000    -0.577350     0.577350     0.577350     0.000000     0.000000     0.000000
    9     1.000000   120.000000    -0.577350     0.577350    -0.577350     0.000000     0.000000     0.000000
   10    -1.000000    90.000000     0.000000     0.000000     1.000000     0.000000     0.000000     0.000000
   11    -1.000000    90.000000    -1.000000     0.000000    -0.000000     0.000000     0.000000     0.000000
   12    -1.000000   180.000000     0.707107     0.000000     0.707107     0.000000     0.000000     0.000000
   13     1.000000   120.000000     0.577350    -0.577350     0.577350     0.000000     0.000000     0.000000
   14     1.000000   120.000000    -0.577350    -0.577350     0.577350     0.000000     0.000000     0.000000
   15     1.000000   180.000000     1.000000     0.000000     0.000000     0.000000     0.000000     0.000000
   16    -1.000000    90.000000     0.000000    -1.000000     0.000000     0.000000     0.000000     0.000000
   17    -1.000000   180.000000     0.707107     0.707107    -0.000000     0.000000     0.000000     0.000000
   18    -1.000000    90.000000     1.000000     0.000000     0.000000     0.000000     0.000000     0.000000
   19     1.000000   120.000000     0.577350    -0.577350    -0.577350     0.000000     0.000000     0.000000
   20     1.000000   180.000000     0.000000    -1.000000     0.000000     0.000000     0.000000     0.000000
   21     1.000000   120.000000     0.577350     0.577350    -0.577350     0.000000     0.000000     0.000000
   22    -1.000000   180.000000    -0.000000    -0.707107     0.707107     0.000000     0.000000     0.000000
   23    -1.000000   180.000000     0.707107    -0.707107    -0.000000     0.000000     0.000000     0.000000
   24    -1.000000   180.000000    -0.707107     0.000000     0.707107     0.000000     0.000000     0.000000
   25    -1.000000     0.000001     1.000000     0.000000     0.000000     0.250000     0.250000     0.250000
   26    -1.000000   120.000000    -0.577350    -0.577350    -0.577350     0.250000     0.250000     0.250000
   27    -1.000000   120.000000     0.577350     0.577350     0.577350     0.250000     0.250000     0.250000
   28     1.000000    90.000000    -0.000000    -0.000000    -1.000000     0.250000     0.250000     0.250000
   29     1.000000   180.000000    -0.000000     0.707107     0.707107     0.250000     0.250000     0.250000
   30     1.000000    90.000000    -0.000000     1.000000    -0.000000     0.250000     0.250000     0.250000
   31    -1.000000   180.000000     0.000000     0.000000    -1.000000     0.250000     0.250000     0.250000
   32    -1.000000   120.000000    -0.577350     0.577350     0.577350     0.250000     0.250000     0.250000
   33    -1.000000   120.000000    -0.577350     0.577350    -0.577350     0.250000     0.250000     0.250000
   34     1.000000    90.000000     0.000000     0.000000     1.000000     0.250000     0.250000     0.250000
   35     1.000000    90.000000    -1.000000     0.000000    -0.000000     0.250000     0.250000     0.250000
   36     1.000000   180.000000     0.707107     0.000000     0.707107     0.250000     0.250000     0.250000
   37    -1.000000   120.000000     0.577350    -0.577350     0.577350     0.250000     0.250000     0.250000
   38    -1.000000   120.000000    -0.577350    -0.577350     0.577350     0.250000     0.250000     0.250000
   39    -1.000000   180.000000     1.000000     0.000000     0.000000     0.250000     0.250000     0.250000
   40     1.000000    90.000000     0.000000    -1.000000     0.000000     0.250000     0.250000     0.250000
   41     1.000000   180.000000     0.707107     0.707107    -0.000000     0.250000     0.250000     0.250000
   42     1.000000    90.000000     1.000000     0.000000     0.000000     0.250000     0.250000     0.250000
   43    -1.000000   120.000000     0.577350    -0.577350    -0.577350     0.250000     0.250000     0.250000
   44    -1.000000   180.000000     0.000000    -1.000000     0.000000     0.250000     0.250000     0.250000
   45    -1.000000   120.000000     0.577350     0.577350    -0.577350     0.250000     0.250000     0.250000
   46     1.000000   180.000000    -0.000000    -0.707107     0.707107     0.250000     0.250000     0.250000
   47     1.000000   180.000000     0.707107    -0.707107    -0.000000     0.250000     0.250000     0.250000
   48     1.000000   180.000000    -0.707107     0.000000     0.707107     0.250000     0.250000     0.250000
 
 Subroutine IBZKPT returns following result:
 ===========================================
 
 Found     20 irreducible k-points:
 
 Following reciprocal coordinates:
            Coordinates               Weight
  0.000000  0.000000  0.000000      1.000000
  0.142857 -0.000000 -0.000000      8.000000
  0.285714 -0.000000  0.000000      8.000000
  0.428571 -0.000000  0.000000      8.000000
  0.142857  0.142857  0.000000      6.000000
  0.285714  0.142857 -0.000000     24.000000
  0.428571  0.142857  0.000000     24.000000
 -0.428571  0.142857 -0.000000     24.000000
 -0.285714  0.142857 -0.000000     24.000000
 -0.142857  0.142857 -0.000000     12.000000
  0.285714  0.285714  0.000000      6.000000
  0.428571  0.285714 -0.000000     24.000000
 -0.428571  0.285714  0.000000     24.000000
 -0.285714  0.285714 -0.000000     12.000000
  0.428571  0.428571  0.000000      6.000000
 -0.428571  0.428571 -0.000000     12.000000
  0.428571  0.285714  0.142857     24.000000
 -0.428571  0.285714  0.142857     48.000000
 -0.428571  0.428571  0.142857     24.000000
 -0.285714  0.428571  0.142857     24.000000
 
 Following cartesian coordinates:
            Coordinates               Weight
  0.000000  0.000000  0.000000      1.000000
 -0.026309  0.026309  0.026309      8.000000
 -0.052618  0.052618  0.052618      8.000000
 -0.078927  0.078927  0.078927      8.000000
 -0.000000  0.000000  0.052618      6.000000
 -0.026309  0.026309  0.078927     24.000000
 -0.052618  0.052618  0.105235     24.000000
  0.105235 -0.105235 -0.052618     24.000000
  0.078927 -0.078927 -0.026309     24.000000
  0.052618 -0.052618  0.000000     12.000000
  0.000000  0.000000  0.105235      6.000000
 -0.026309  0.026309  0.131544     24.000000
  0.131544 -0.131544 -0.026309     24.000000
  0.105235 -0.105235  0.000000     12.000000
  0.000000  0.000000  0.157853      6.000000
  0.157853 -0.157853  0.000000     12.000000
  0.000000  0.052618  0.105235     24.000000
  0.157853 -0.105235 -0.052618     48.000000
  0.184162 -0.131544 -0.026309     24.000000
  0.157853 -0.105235 -0.000000     24.000000
 


--------------------------------------------------------------------------------------------------------




 Dimension of arrays:
   k-points           NKPTS =     20   k-points in BZ     NKDIM =     20   number of bands    NBANDS=      8
   number of dos      NEDOS =    301   number of ions     NIONS =      2
   non local maximal  LDIM  =      4   non local SUM 2l+1 LMDIM =      8
   total plane-waves  NPLWV =   1728
   max r-space proj   IRMAX =      1   max aug-charges    IRDMAX=   1643
   dimension x,y,z NGX =    12 NGY =   12 NGZ =   12
   dimension x,y,z NGXF=    24 NGYF=   24 NGZF=   24
   support grid    NGXF=    24 NGYF=   24 NGZF=   24
   ions per type =               2
   NGX,Y,Z   is equivalent  to a cutoff of   5.20,  5.20,  5.20 a.u.
   NGXF,Y,Z  is equivalent  to a cutoff of  10.39, 10.39, 10.39 a.u.

 SYSTEM =  unknown system                          
 POSCAR =  Si2                                     

 Startparameter for this run:
   NWRITE =      2    write-flag & timer
   PREC   = normal    normal or accurate (medium, high low for compatibility)
   ISTART =      0    job   : 0-new  1-cont  2-samecut
   ICHARG =      2    charge: 1-file 2-atom 10-const
   ISPIN  =      1    spin polarized calculation?
   LNONCOLLINEAR =      F non collinear calculations
   LSORBIT =      F    spin-orbit coupling
   INIWAV =      1    electr: 0-lowe 1-rand  2-diag
   LASPH  =      F    aspherical Exc in radial PAW
   METAGGA=      F    non-selfconsistent MetaGGA calc.

 Electronic Relaxation 1
   ENCUT  =  150.0 eV  11.02 Ry    3.32 a.u.   3.83  3.83  3.83*2*pi/ulx,y,z
   ENINI  =  150.0     initial cutoff
   ENAUG  =  322.1 eV  augmentation charge cutoff
   NELM   =     60;   NELMIN=  2; NELMDL= -5     # of ELM steps 
   EDIFF  = 0.4E-03   stopping-criterion for ELM
   LREAL  =      F    real-space projection
   NLSPLINE    = F    spline interpolate recip. space projectors
   LCOMPAT=      F    compatible to vasp.4.4
   GGA_COMPAT  = T    GGA compatible to vasp.4.4-vasp.4.6
   LMAXPAW     = -100 max onsite density
   LMAXMIX     =    2 max onsite mixed and CHGCAR
   VOSKOWN=      0    Vosko Wilk Nusair interpolation
   ROPT   =    0.00000
 Ionic relaxation
   EDIFFG = -.1E-01   stopping-criterion for IOM
   NSW    =     15    number of steps for IOM
   NBLOCK =      1;   KBLOCK =     15    inner block; outer block 
   IBRION =      2    ionic relax: 0-MD 1-quasi-New 2-CG
   NFREE  =      1    steps in history (QN), initial steepest desc. (CG)
   ISIF   =      3    stress and relaxation
   IWAVPR =     11    prediction:  0-non 1-charg 2-wave 3-comb
   ISYM   =      2    0-nonsym 1-usesym 2-fastsym
   LCORR  =      T    Harris-Foulkes like correction to forces

   POTIM  = 0.5000    time-step for ionic-motion
   TEIN   =    0.0    initial temperature
   TEBEG  =    0.0;   TEEND  =   0.0 temperature during run
   SMASS  =  -3.00    Nose mass-parameter (am)
   estimated Nose-frequenzy (Omega)   =  0.10E-29 period in steps =****** mass=  -0.337E-27a.u.
   SCALEE = 1.0000    scale energy and forces
   NPACO  =    256;   APACO  = 16.0  distance and # of slots for P.C.
   PSTRESS=    0.0 pullay stress

  Mass of Ions in am
   POMASS =  28.09
  Ionic Valenz
   ZVAL   =   4.00
  Atomic Wigner-Seitz radii
   RWIGS  =  -1.00
  virtual crystal weights 
   VCA    =   1.00
   NELECT =       8.0000    total number of electrons
   NUPDOWN=      -1.0000    fix difference up-down

 DOS related values:
   EMIN   =  10.00;   EMAX   =-10.00  energy-range for DOS
   EFERMI =   0.00
   ISMEAR =     0;   SIGMA  =   0.20  broadening in eV -4-tet -1-fermi 0-gaus

 Electronic relaxation 2 (details)
   IALGO  =     38    algorithm
   LDIAG  =      T    sub-space diagonalisation (order eigenvalues)
   LSUBROT=      F    optimize rotation matrix (better conditioning)
   TURBO    =      0    0=normal 1=particle mesh
   IRESTART =      0    0=no restart 2=restart with 2 vectors
   NREBOOT  =      0    no. of reboots
   NMIN     =      0    reboot dimension
   EREF     =   0.00    reference energy to select bands
   IMIX   =      4    mixing-type and parameters
     AMIX     =   0.40;   BMIX     =  1.00
     AMIX_MAG =   1.60;   BMIX_MAG =  1.00
     AMIN     =   0.10
     WC   =   100.;   INIMIX=   1;  MIXPRE=   1;  MAXMIX= -45

 Intra band minimization:
   WEIMIN = 0.0010     energy-eigenvalue tresh-hold
   EBREAK =  0.13E-04  absolut break condition
   DEPER  =   0.30     relativ break condition  

   TIME   =   0.40     timestep for ELM

  volume/ion in A,a.u.               =      20.01       135.05
  Fermi-wavevector in a.u.,A,eV,Ry     =   0.957176  1.808800 12.465458  0.916185
  Thomas-Fermi vector in A             =   2.086170
 
 Write flags
   LWAVE        =      T    write WAVECAR
   LDOWNSAMPLE  =      F    k-point downsampling of WAVECAR
   LCHARG       =      T    write CHGCAR
   LVTOT        =      F    write LOCPOT, total local potential
   LVHAR        =      F    write LOCPOT, Hartree potential only
   LELF         =      F    write electronic localiz. function (ELF)
   LORBIT       =      0    0 simple, 1 ext, 2 COOP (PROOUT), +10 PAW based schemes


 Dipole corrections
   LMONO  =      F    monopole corrections only (constant potential shift)
   LDIPOL =      F    correct potential (dipole corrections)
   IDIPOL =      0    1-x, 2-y, 3-z, 4-all directions 
   EPSILON=  1.0000000 bulk dielectric constant

 Exchange correlation treatment:
   GGA     =    --    GGA type
   LEXCH   =     8    internal setting for exchange type
   VOSKOWN=      0    Vosko Wilk Nusair interpolation
   LHFCALC =     F    Hartree Fock is set to
   LHFONE  =     F    Hartree Fock one center treatment
   AEXX    =    0.0000 exact exchange contribution

 Linear response parameters
   LEPSILON=     F    determine dielectric tensor
   LRPA    =     F    only Hartree local field effects (RPA)
   LNABLA  =     F    use nabla operator in PAW spheres
   LVEL    =     F    velocity operator in full k-point grid
   LINTERFAST=   F  fast interpolation
   KINTER  =     0    interpolate to denser k-point grid
   CSHIFT  =0.1000    complex shift for real part using Kramers Kronig
   OMEGAMAX=  -1.0    maximum frequency
   DEG_THRESHOLD= 0.2000000E-02 threshold for treating states as degnerate
   RTIME   =   -0.100 relaxation time in fs
  (WPLASMAI=    0.000 imaginary part of plasma frequency in eV, 0.658/RTIME)
   DFIELD  = 0.0000000 0.0000000 0.0000000 field for delta impulse in time
 
 Orbital magnetization related:
   ORBITALMAG=     F  switch on orbital magnetization
   LCHIMAG   =     F  perturbation theory with respect to B field
   DQ        =  0.001000  dq finite difference perturbation B field
   LLRAUG    =     F  two centre corrections for induced B field



--------------------------------------------------------------------------------------------------------


 conjugate gradient relaxation of ions
 charge density and potential will be updated during run
 non-spin polarized calculation
 Variant of blocked Davidson
 Davidson routine will perform the subspace rotation
 perform sub-space diagonalisation
    after iterative eigenvector-optimisation
 modified Broyden-mixing scheme, WC =      100.0
 initial mixing is a Kerker type mixing with AMIX =  0.4000 and BMIX =      1.0000
 Hartree-type preconditioning will be used
 using additional bands            4
 reciprocal scheme for non local part
 use partial core corrections
 calculate Harris-corrections to forces 
   (improved forces if not selfconsistent)
 use gradient corrections 
 use of overlap-Matrix (Vanderbilt PP)
 Gauss-broadening in eV      SIGMA  =   0.20


--------------------------------------------------------------------------------------------------------


  energy-cutoff  :      150.00
  volume of cell :       40.03
      direct lattice vectors                 reciprocal lattice vectors
     0.000000000  2.715000000  2.715000000    -0.184162063  0.184162063  0.184162063
     2.715000000  0.000000000  2.715000000     0.184162063 -0.184162063  0.184162063
     2.715000000  2.715000000  0.000000000     0.184162063  0.184162063 -0.184162063

  length of vectors
     3.839589822  3.839589822  3.839589822     0.318978049  0.318978049  0.318978049


 
 k-points in units of 2pi/SCALE and weight: Automatic kpoint scheme                 
   0.00000000  0.00000000  0.00000000       0.003
  -0.02630887  0.02630887  0.02630887       0.023
  -0.05261773  0.05261773  0.05261773       0.023
  -0.07892660  0.07892660  0.07892660       0.023
  -0.00000000  0.00000000  0.05261773       0.017
  -0.02630887  0.02630887  0.07892660       0.070
  -0.05261773  0.05261773  0.10523546       0.070
   0.10523546 -0.10523546 -0.05261773       0.070
   0.07892660 -0.07892660 -0.02630887       0.070
   0.05261773 -0.05261773  0.00000000       0.035
  -0.00000000  0.00000000  0.10523546       0.017
  -0.02630887  0.02630887  0.13154433       0.070
   0.13154433 -0.13154433 -0.02630887       0.070
   0.10523546 -0.10523546  0.00000000       0.035
   0.00000000 -0.00000000  0.15785320       0.017
   0.15785320 -0.15785320  0.00000000       0.035
   0.00000000  0.05261773  0.10523546       0.070
   0.15785320 -0.10523546 -0.05261773       0.140
   0.18416206 -0.13154433 -0.02630887       0.070
   0.15785320 -0.10523546 -0.00000000       0.070
 
 k-points in reciprocal lattice and weights: Automatic kpoint scheme                 
   0.00000000  0.00000000  0.00000000       0.003
   0.14285714 -0.00000000 -0.00000000       0.023
   0.28571429 -0.00000000  0.00000000       0.023
   0.42857143 -0.00000000  0.00000000       0.023
   0.14285714  0.14285714  0.00000000       0.017
   0.28571429  0.14285714 -0.00000000       0.070
   0.42857143  0.14285714  0.00000000       0.070
  -0.42857143  0.14285714 -0.00000000       0.070
  -0.28571429  0.14285714 -0.00000000       0.070
  -0.14285714  0.14285714 -0.00000000       0.035
   0.28571429  0.28571429  0.00000000       0.017
   0.42857143  0.28571429 -0.00000000       0.070
  -0.42857143  0.28571429  0.00000000       0.070
  -0.28571429  0.28571429 -0.00000000       0.035
   0.42857143  0.42857143  0.00000000       0.017
  -0.42857143  0.42857143 -0.00000000       0.035
   0.42857143  0.28571429  0.14285714       0.070
  -0.42857143  0.28571429  0.14285714       0.140
  -0.42857143  0.42857143  0.14285714       0.070
  -0.28571429  0.42857143  0.14285714       0.070
 
 position of ions in fractional coordinates (direct lattice) 
   0.50000000  0.50000000  0.50000000
   0.75000000  0.75000000  0.75000000
 
 position of ions in cartesian coordinates  (Angst):
   2.71500000  2.71500000  2.71500000
   4.07250000  4.07250000  4.07250000
 


--------------------------------------------------------------------------------------------------------


 k-point  1 :   0.0000 0.0000 0.0000  plane waves:     169
 k-point  2 :   0.1429-0.0000-0.0000  plane waves:     168
 k-point  3 :   0.2857-0.0000 0.0000  plane waves:     162
 k-point  4 :   0.4286-0.0000 0.0000  plane waves:     162
 k-point  5 :   0.1429 0.1429 0.0000  plane waves:     165
 k-point  6 :   0.2857 0.1429-0.0000  plane waves:     162
 k-point  7 :   0.4286 0.1429 0.0000  plane waves:     164
 k-point  8 :  -0.4286 0.1429-0.0000  plane waves:     164
 k-point  9 :  -0.2857 0.1429-0.0000  plane waves:     166
 k-point 10 :  -0.1429 0.1429-0.0000  plane waves:     160
 k-point 11 :   0.2857 0.2857 0.0000  plane waves:     165
 k-point 12 :   0.4286 0.2857-0.0000  plane waves:     167
 k-point 13 :  -0.4286 0.2857 0.0000  plane waves:     168
 k-point 14 :  -0.2857 0.2857-0.0000  plane waves:     168
 k-point 15 :   0.4286 0.4286 0.0000  plane waves:     162
 k-point 16 :  -0.4286 0.4286-0.0000  plane waves:     170
 k-point 17 :   0.4286 0.2857 0.1429  plane waves:     168
 k-point 18 :  -0.4286 0.2857 0.1429  plane waves:     169
 k-point 19 :  -0.4286 0.4286 0.1429  plane waves:     171
 k-point 20 :  -0.2857 0.4286 0.1429  plane waves:     169

 maximum and minimum number of plane-waves per node :       171      160

 maximum number of plane-waves:       171
 maximum index in each direction: 
   IXMAX=    4   IYMAX=    3   IZMAX=    3
   IXMIN=   -4   IYMIN=   -4   IZMIN=   -3


 serial   3D FFT for wavefunctions
 parallel 3D FFT for charge:
    minimum data exchange during FFTs selected (reduces bandwidth)


 total amount of memory used by VASP MPI-rank0    30521. kBytes
=======================================================================

   base      :      30000. kBytes
   nonl-proj :        230. kBytes
   fftplans  :         66. kBytes
   grid      :        158. kBytes
   one-center:          6. kBytes
   wavefun   :         61. kBytes
 
     INWAV:  cpu time    0.0000: real time    0.0004
 Broyden mixing: mesh for mixing (old mesh)
   NGX =  7   NGY =  7   NGZ =  7
  (NGX  = 24   NGY  = 24   NGZ  = 24)
  gives a total of    343 points

 initial charge density was supplied:
 charge density of overlapping atoms calculated
 number of electron       8.0000000 magnetization 
 keeping initial charge density in first step


--------------------------------------------------------------------------------------------------------


 Maximum index for augmentation-charges          204 (set IRDMAX)


--------------------------------------------------------------------------------------------------------


 First call to EWALD:  gamma=   0.518
 Maximum number of real-space cells 3x 3x 3
 Maximum number of reciprocal cells 3x 3x 3

    FEWALD:  cpu time    0.0080: real time    0.0074


--------------------------------------- Iteration      1(   1)  ---------------------------------------


    POTLOK:  cpu time    0.0200: real time    0.0443
    SETDIJ:  cpu time    0.0080: real time    0.0087
     EDDAV:  cpu time    0.1640: real time    0.1698
       DOS:  cpu time    0.0040: real time    0.0023
    --------------------------------------------
      LOOP:  cpu time    0.1960: real time    0.2257

 eigenvalue-minimisations  :   344
 total energy-change (2. order) :-0.4234695E+01  (-0.1832233E+03)
 number of electron       8.0000000 magnetization 
 augmentation part        8.0000000 magnetization 

 Free energy of the ion-electron system (eV)
  ---------------------------------------------------
  alpha Z        PSCENC =         3.36414203
  Ewald energy   TEWEN  =      -228.56352493
  -Hartree energ DENC   =       -11.00108243
  -exchange      EXHF   =         0.00000000
  -V(xc)+E(xc)   XCENC  =       -18.60155909
  PAW double counting   =        65.95520812      -30.76852678
  entropy T*S    EENTRO =        -0.00840438
  eigenvalues    EBANDS =         9.29721647
  atomic energy  EATOM  =       206.09183643
  Solvation  Ediel_sol  =         0.00000000
  ---------------------------------------------------
  free energy    TOTEN  =        -4.23469457 eV

  energy without entropy =       -4.22629018  energy(sigma->0) =       -4.23049237


--------------------------------------------------------------------------------------------------------




--------------------------------------- Iteration      1(   2)  ---------------------------------------


     EDDAV:  cpu time    0.2480: real time    0.2616
       DOS:  cpu time    0.0000: real time    0.0021
    --------------------------------------------
      LOOP:  cpu time    0.2480: real time    0.2637

 eigenvalue-minimisations  :   512
 total energy-change (2. order) :-0.6633952E+01  (-0.6433620E+01)
 number of electron       8.0000000 magnetization 
 augmentation part        8.0000000 magnetization 

 Free energy of the ion-electron system (eV)
  ---------------------------------------------------
  alpha Z        PSCENC =         3.36414203
  Ewald energy   TEWEN  =      -228.56352493
  -Hartree energ DENC   =       -11.00108243
  -exchange      EXHF   =         0.00000000
  -V(xc)+E(xc)   XCENC  =       -18.60155909
  PAW double counting   =        65.95520812      -30.76852678
  entropy T*S    EENTRO =        -0.00001965
  eigenvalues    EBANDS =         2.65488014
  atomic energy  EATOM  =       206.09183643
  Solvation  Ediel_sol  =         0.00000000
  ---------------------------------------------------
  free energy    TOTEN  =       -10.86864617 eV

  energy without entropy =      -10.86862652  energy(sigma->0) =      -10.86863635


--------------------------------------------------------------------------------------------------------




--------------------------------------- Iteration      1(   3)  ---------------------------------------


     EDDAV:  cpu time    0.1640: real time    0.1689
       DOS:  cpu time    0.0040: real time    0.0020
    --------------------------------------------
      LOOP:  cpu time    0.1680: real time    0.1710

 eigenvalue-minimisations  :   352
 total energy-change (2. order) :-0.4835398E-01  (-0.4835390E-01)
 number of electron       8.0000000 magnetization 
 augmentation part        8.0000000 magnetization 

 Free energy of the ion-electron system (eV)
  ---------------------------------------------------
  alpha Z        PSCENC =         3.36414203
  Ewald energy   TEWEN  =      -228.56352493
  -Hartree energ DENC   =       -11.00108243
  -exchange      EXHF   =         0.00000000
  -V(xc)+E(xc)   XCENC  =       -18.60155909
  PAW double counting   =        65.95520812      -30.76852678
  entropy T*S    EENTRO =        -0.00001601
  eigenvalues    EBANDS =         2.60652252
  atomic energy  EATOM  =       206.09183643
  Solvation  Ediel_sol  =         0.00000000
  ---------------------------------------------------
  free energy    TOTEN  =       -10.91700015 eV

  energy without entropy =      -10.91698414  energy(sigma->0) =      -10.91699214


--------------------------------------------------------------------------------------------------------




--------------------------------------- Iteration      1(   4)  ---------------------------------------


     EDDAV:  cpu time    0.2720: real time    0.2828
       DOS:  cpu time    0.0000: real time    0.0028
    --------------------------------------------
      LOOP:  cpu time    0.2760: real time    0.2861

 eigenvalue-minimisations  :   560
 total energy-change (2. order) :-0.9678837E-04  (-0.9678868E-04)
 number of electron       8.0000000 magnetization 
 augmentation part        8.0000000 magnetization 

 Free energy of the ion-electron system (eV)
  ---------------------------------------------------
  alpha Z        PSCENC =         3.36414203
  Ewald energy   TEWEN  =      -228.56352493
  -Hartree energ DENC   =       -11.00108243
  -exchange      EXHF   =         0.00000000
  -V(xc)+E(xc)   XCENC  =       -18.60155909
  PAW double counting   =        65.95520812      -30.76852678
  entropy T*S    EENTRO =        -0.00001601
  eigenvalues    EBANDS =         2.60642573
  atomic energy  EATOM  =       206.09183643
  Solvation  Ediel_sol  =         0.00000000
  ---------------------------------------------------
  free energy    TOTEN  =       -10.91709694 eV

  energy without entropy =      -10.91708093  energy(sigma->0) =      -10.91708893


--------------------------------------------------------------------------------------------------------




--------------------------------------- Iteration      1(   5)  ---------------------------------------


     EDDAV:  cpu time    0.1640: real time    0.1702
       DOS:  cpu time    0.0000: real time    0.0020
    CHARGE:  cpu time    0.0080: real time    0.0085
    MIXING:  cpu time    0.0040: real time    0.0017
    --------------------------------------------
      LOOP:  cpu time    0.1720: real time    0.1818

 eigenvalue-minimisations  :   344
 total energy-change (2. order) :-0.7826571E-08  (-0.7848889E-08)
 number of electron       8.0000043 magnetization 
 augmentation part       -0.4647740 magnetization 

 Broyden mixing:
  rms(total) = 0.29692E+00    rms(broyden)= 0.29649E+00
  rms(prec ) = 0.86352E+00
  weight for this iteration     100.00

 Free energy of the ion-electron system (eV)
  ---------------------------------------------------
  alpha Z        PSCENC =         3.36414203
  Ewald energy   TEWEN  =      -228.56352493
  -Hartree energ DENC   =       -11.00108243
  -exchange      EXHF   =         0.00000000
  -V(xc)+E(xc)   XCENC  =       -18.60155909
  PAW double counting   =        65.95520812      -30.76852678
  entropy T*S    EENTRO =        -0.00001601
  eigenvalues    EBANDS =         2.60642572
  atomic energy  EATOM  =       206.09183643
  Solvation  Ediel_sol  =         0.00000000
  ---------------------------------------------------
  free energy    TOTEN  =       -10.91709694 eV

  energy without entropy =      -10.91708094  energy(sigma->0) =      -10.91708894


--------------------------------------------------------------------------------------------------------




--------------------------------------- Iteration      1(   6)  ---------------------------------------


    POTLOK:  cpu time    0.0120: real time    0.0216
    SETDIJ:  cpu time    0.0080: real time    0.0080
     EDDAV:  cpu time    0.1840: real time    0.1823
       DOS:  cpu time    0.0000: real time    0.0021
    CHARGE:  cpu time    0.0080: real time    0.0073
    MIXING:  cpu time    0.0000: real time    0.0014
    --------------------------------------------
      LOOP:  cpu time    0.2120: real time    0.2226

 eigenvalue-minimisations  :   400
 total energy-change (2. order) : 0.1249821E+00  (-0.7726272E-02)
 number of electron       8.0000042 magnetization 
 augmentation part       -0.4589812 magnetization 

 Broyden mixing:
  rms(total) = 0.17581E+00    rms(broyden)= 0.17578E+00
  rms(prec ) = 0.50918E+00
  weight for this iteration     100.00

 eigenvalues of (default mixing * dielectric matrix)
  average eigenvalue GAMMA=   2.4367
  2.4367

 Free energy of the ion-electron system (eV)
  ---------------------------------------------------
  alpha Z        PSCENC =         3.36414203
  Ewald energy   TEWEN  =      -228.56352493
  -Hartree energ DENC   =       -12.48822247
  -exchange      EXHF   =         0.00000000
  -V(xc)+E(xc)   XCENC  =       -18.34875996
  PAW double counting   =        70.81831718      -35.74696165
  entropy T*S    EENTRO =        -0.00007282
  eigenvalues    EBANDS =         4.08113132
  atomic energy  EATOM  =       206.09183643
  Solvation  Ediel_sol  =         0.00000000
  ---------------------------------------------------
  free energy    TOTEN  =       -10.79211488 eV

  energy without entropy =      -10.79204206  energy(sigma->0) =      -10.79207847


--------------------------------------------------------------------------------------------------------




--------------------------------------- Iteration      1(   7)  ---------------------------------------


    POTLOK:  cpu time    0.0160: real time    0.0234
    SETDIJ:  cpu time    0.0080: real time    0.0080
     EDDAV:  cpu time    0.1760: real time    0.1777
       DOS:  cpu time    0.0040: real time    0.0021
    CHARGE:  cpu time    0.0080: real time    0.0073
    MIXING:  cpu time    0.0000: real time    0.0012
    --------------------------------------------
      LOOP:  cpu time    0.2120: real time    0.2195

 eigenvalue-minimisations  :   392
 total energy-change (2. order) : 0.5873794E-01  (-0.1445422E-01)
 number of electron       8.0000042 magnetization 
 augmentation part       -0.4520982 magnetization 

 Broyden mixing:
  rms(total) = 0.14684E-01    rms(broyden)= 0.14578E-01
  rms(prec ) = 0.38548E-01
  weight for this iteration     100.00

 eigenvalues of (default mixing * dielectric matrix)
  average eigenvalue GAMMA=   2.4658
  2.4658  2.4658

 Free energy of the ion-electron system (eV)
  ---------------------------------------------------
  alpha Z        PSCENC =         3.36414203
  Ewald energy   TEWEN  =      -228.56352493
  -Hartree energ DENC   =       -14.89218353
  -exchange      EXHF   =         0.00000000
  -V(xc)+E(xc)   XCENC  =       -17.93712621
  PAW double counting   =        77.51357569      -42.59248268
  entropy T*S    EENTRO =        -0.00035196
  eigenvalues    EBANDS =         6.28273822
  atomic energy  EATOM  =       206.09183643
  Solvation  Ediel_sol  =         0.00000000
  ---------------------------------------------------
  free energy    TOTEN  =       -10.73337694 eV

  energy without entropy =      -10.73302498  energy(sigma->0) =      -10.73320096


--------------------------------------------------------------------------------------------------------




--------------------------------------- Iteration      1(   8)  ---------------------------------------


    POTLOK:  cpu time    0.0120: real time    0.0225
    SETDIJ:  cpu time    0.0080: real time    0.0079
     EDDAV:  cpu time    0.1680: real time    0.1661
       DOS:  cpu time    0.0000: real time    0.0020
    CHARGE:  cpu time    0.0080: real time    0.0073
    MIXING:  cpu time    0.0000: real time    0.0014
    --------------------------------------------
      LOOP:  cpu time    0.1960: real time    0.2073

 eigenvalue-minimisations  :   368
 total energy-change (2. order) :-0.1265939E-02  (-0.3382469E-03)
 number of electron       8.0000042 magnetization 
 augmentation part       -0.4529852 magnetization 

 Broyden mixing:
  rms(total) = 0.24234E-02    rms(broyden)= 0.24057E-02
  rms(prec ) = 0.83715E-02
  weight for this iteration     100.00

 eigenvalues of (default mixing * dielectric matrix)
  average eigenvalue GAMMA=   2.1428
  1.4313  2.8323  2.1649

 Free energy of the ion-electron system (eV)
  ---------------------------------------------------
  alpha Z        PSCENC =         3.36414203
  Ewald energy   TEWEN  =      -228.56352493
  -Hartree energ DENC   =       -14.85784588
  -exchange      EXHF   =         0.00000000
  -V(xc)+E(xc)   XCENC  =       -17.92784462
  PAW double counting   =        76.68962234      -41.74099551
  entropy T*S    EENTRO =        -0.00029411
  eigenvalues    EBANDS =         6.21026138
  atomic energy  EATOM  =       206.09183643
  Solvation  Ediel_sol  =         0.00000000
  ---------------------------------------------------
  free energy    TOTEN  =       -10.73464288 eV

  energy without entropy =      -10.73434876  energy(sigma->0) =      -10.73449582


--------------------------------------------------------------------------------------------------------




--------------------------------------- Iteration      1(   9)  ---------------------------------------


    POTLOK:  cpu time    0.0160: real time    0.0215
    SETDIJ:  cpu time    0.0080: real time    0.0081
     EDDAV:  cpu time    0.0960: real time    0.0969
       DOS:  cpu time    0.0040: real time    0.0019
    --------------------------------------------
      LOOP:  cpu time    0.1240: real time    0.1285

 eigenvalue-minimisations  :   200
 total energy-change (2. order) :-0.9013461E-04  (-0.8448232E-05)
 number of electron       8.0000042 magnetization 
 augmentation part       -0.4529852 magnetization 

 Free energy of the ion-electron system (eV)
  ---------------------------------------------------
  alpha Z        PSCENC =         3.36414203
  Ewald energy   TEWEN  =      -228.56352493
  -Hartree energ DENC   =       -14.89986104
  -exchange      EXHF   =         0.00000000
  -V(xc)+E(xc)   XCENC  =       -17.92047253
  PAW double counting   =        76.71614422      -41.76800452
  entropy T*S    EENTRO =        -0.00029306
  eigenvalues    EBANDS =         6.24530040
  atomic energy  EATOM  =       206.09183643
  Solvation  Ediel_sol  =         0.00000000
  ---------------------------------------------------
  free energy    TOTEN  =       -10.73473301 eV

  energy without entropy =      -10.73443996  energy(sigma->0) =      -10.73458648


--------------------------------------------------------------------------------------------------------




 average (electrostatic) potential at core
  the test charge radii are     0.9892
  (the norm of the test charge is              1.0000)
       1 -83.2627       2 -83.2627
 
 
 
 E-fermi :   6.1589     XC(G=0):  -9.4143     alpha+bet :-11.9845


 k-point     1 :       0.0000    0.0000    0.0000
  band No.  band energies     occupation 
      1      -6.1335      2.00000
      2       5.8788      1.95239
      3       5.8788      1.95239
      4       5.8791      1.95215
      5       8.4566      0.00000
      6       8.4566      0.00000
      7       8.4568      0.00000
      8       9.1992      0.00000

 k-point     2 :       0.1429   -0.0000   -0.0000
  band No.  band energies     occupation 
      1      -5.8669      2.00000
      2       3.9280      2.00000
      3       5.5150      1.99999
      4       5.5152      1.99999
      5       8.3245      0.00000
      6       8.9863      0.00000
      7       8.9866      0.00000
      8      10.8880      0.00000

 k-point     3 :       0.2857   -0.0000    0.0000
  band No.  band energies     occupation 
      1      -5.0986      2.00000
      2       1.2915      2.00000
      3       4.9883      2.00000
      4       4.9885      2.00000
      5       7.7989      0.00000
      6       9.4609      0.00000
      7       9.4613      0.00000
      8      13.3353      0.00000

 k-point     4 :       0.4286   -0.0000    0.0000
  band No.  band energies     occupation 
      1      -4.0540      2.00000
      2      -0.7524      2.00000
      3       4.6951      2.00000
      4       4.6953      2.00000
      5       7.4568      0.00000
      6       9.3267      0.00000
      7       9.3271      0.00000
      8      13.6650      0.00000

 k-point     5 :       0.1429    0.1429    0.0000
  band No.  band energies     occupation 
      1      -5.7767      2.00000
      2       4.2324      2.00000
      3       4.8927      2.00000
      4       4.8929      2.00000
      5       7.7737      0.00000
      6       9.8897      0.00000
      7       9.8899      0.00000
      8      10.3122      0.00000

 k-point     6 :       0.2857    0.1429   -0.0000
  band No.  band energies     occupation 
      1      -5.1683      2.00000
      2       2.0919      2.00000
      3       4.3051      2.00000
      4       4.3409      2.00000
      5       7.9785      0.00000
      6       9.8124      0.00000
      7      10.5307      0.00000
      8      10.6924      0.00000

 k-point     7 :       0.4286    0.1429    0.0000
  band No.  band energies     occupation 
      1      -4.1559      2.00000
      2      -0.1073      2.00000
      3       3.6119      2.00000
      4       4.1467      2.00000
      5       8.0489      0.00000
      6       9.7418      0.00000
      7      10.4851      0.00000
      8      11.7468      0.00000

 k-point     8 :      -0.4286    0.1429   -0.0000
  band No.  band energies     occupation 
      1      -3.5939      2.00000
      2      -0.9779      2.00000
      3       3.1902      2.00000
      4       4.3488      2.00000
      5       8.1447      0.00000
      6       9.6557      0.00000
      7      10.0896      0.00000
      8      14.0976      0.00000

 k-point     9 :      -0.2857    0.1429   -0.0000
  band No.  band energies     occupation 
      1      -4.5260      2.00000
      2       0.5769      2.00000
      3       3.1951      2.00000
      4       4.8676      2.00000
      5       8.5551      0.00000
      6       9.8304      0.00000
      7       9.8627      0.00000
      8      12.5751      0.00000

 k-point    10 :      -0.1429    0.1429   -0.0000
  band No.  band energies     occupation 
      1      -5.4296      2.00000
      2       2.7174      2.00000
      3       3.8892      2.00000
      4       5.4743      2.00000
      5       8.9559      0.00000
      6       9.2020      0.00000
      7       9.4801      0.00000
      8      11.5449      0.00000

 k-point    11 :       0.2857    0.2857    0.0000
  band No.  band energies     occupation 
      1      -4.7232      2.00000
      2       1.6892      2.00000
      3       3.7094      2.00000
      4       3.7095      2.00000
      5       6.8252      0.00000
      6       8.5464      0.00000
      7      12.3479      0.00000
      8      12.3482      0.00000

 k-point    12 :       0.4286    0.2857   -0.0000
  band No.  band energies     occupation 
      1      -3.8178      2.00000
      2       0.1783      2.00000
      3       2.7255      2.00000
      4       3.4458      2.00000
      5       7.1158      0.00000
      6       8.6148      0.00000
      7      12.5624      0.00000
      8      12.7552      0.00000

 k-point    13 :      -0.4286    0.2857    0.0000
  band No.  band energies     occupation 
      1      -2.8954      2.00000
      2      -1.0095      2.00000
      3       1.7679      2.00000
      4       3.6143      2.00000
      5       7.3605      0.00000
      6      10.8978      0.00000
      7      12.2461      0.00000
      8      12.2818      0.00000

 k-point    14 :      -0.2857    0.2857   -0.0000
  band No.  band energies     occupation 
      1      -3.5486      2.00000
      2      -0.2553      2.00000
      3       1.6936      2.00000
      4       4.1716      2.00000
      5       7.9775      0.00000
      6      11.3914      0.00000
      7      11.7774      0.00000
      8      12.5077      0.00000

 k-point    15 :       0.4286    0.4286    0.0000
  band No.  band energies     occupation 
      1      -3.0304      2.00000
      2      -0.8227      2.00000
      3       3.0704      2.00000
      4       3.0705      2.00000
      5       6.4785      0.02383
      6       6.9892      0.00000
      7      15.0493      0.00000
      8      15.0495      0.00000

 k-point    16 :      -0.4286    0.4286   -0.0000
  band No.  band energies     occupation 
      1      -2.0764      2.00000
      2      -1.7873      2.00000
      3       2.1737      2.00000
      4       3.1311      2.00000
      5       6.7780      0.00001
      6       8.0445      0.00000
      7      14.7746      0.00000
      8      15.1814      0.00000

 k-point    17 :       0.4286    0.2857    0.1429
  band No.  band energies     occupation 
      1      -4.4134      2.00000
      2       0.9472      2.00000
      3       2.7308      2.00000
      4       4.0646      2.00000
      5       8.4926      0.00000
      6       9.7671      0.00000
      7      10.0730      0.00000
      8      12.0976      0.00000

 k-point    18 :      -0.4286    0.2857    0.1429
  band No.  band energies     occupation 
      1      -3.3671      2.00000
      2      -0.5958      2.00000
      3       2.1560      2.00000
      4       3.5216      2.00000
      5       8.9868      0.00000
      6       9.4040      0.00000
      7      11.4098      0.00000
      8      12.5670      0.00000

 k-point    19 :      -0.4286    0.4286    0.1429
  band No.  band energies     occupation 
      1      -2.8250      2.00000
      2      -0.9097      2.00000
      3       2.2420      2.00000
      4       2.6543      2.00000
      5       8.1195      0.00000
      6       8.4879      0.00000
      7      12.0997      0.00000
      8      14.6183      0.00000

 k-point    20 :      -0.2857    0.4286    0.1429
  band No.  band energies     occupation 
      1      -2.3854      2.00000
      2      -1.3102      2.00000
      3       1.5993      2.00000
      4       2.7477      2.00000
      5       8.6535      0.00000
      6      10.7861      0.00000
      7      11.5777      0.00000
      8      11.7279      0.00000


--------------------------------------------------------------------------------------------------------


 soft charge-density along one line, spin component           1
         0         1         2         3         4         5         6         7         8         9
 total charge-density along one line
 
 pseudopotential strength for first ion, spin component:           1
 18.419  -0.001  -0.000  -0.000  -0.000   0.000   0.000   0.000
 -0.001   0.006   0.000   0.000   0.000  -0.000  -0.000  -0.000
 -0.000   0.000   4.180  -0.000  -0.000  -0.005   0.000   0.000
 -0.000   0.000  -0.000   4.180  -0.000   0.000  -0.005   0.000
 -0.000   0.000  -0.000  -0.000   4.180   0.000   0.000  -0.005
  0.000  -0.000  -0.005   0.000   0.000   0.005  -0.000  -0.000
  0.000  -0.000   0.000  -0.005   0.000  -0.000   0.005  -0.000
  0.000  -0.000   0.000   0.000  -0.005  -0.000  -0.000   0.005
 total augmentation occupancy for first ion, spin component:           1
  1.489  -0.994  -0.000  -0.000   0.000   0.000   0.000   0.000
 -0.994   1.047   0.000   0.000  -0.000  -0.000   0.000   0.000
 -0.000   0.000   1.013  -0.000   0.000  -0.928   0.000  -0.000
 -0.000   0.000  -0.000   1.013   0.000   0.000  -0.928  -0.000
  0.000   0.000   0.000   0.000   1.013  -0.000  -0.000  -0.928
  0.000  -0.000  -0.928   0.000  -0.000   0.913  -0.000   0.000
  0.000   0.000   0.000  -0.928  -0.000  -0.000   0.913   0.000
  0.000   0.000  -0.000  -0.000  -0.928   0.000   0.000   0.913


------------------------ aborting loop because EDIFF is reached ----------------------------------------


    CHARGE:  cpu time    0.0040: real time    0.0070
    FORLOC:  cpu time    0.0000: real time    0.0004
    FORNL :  cpu time    0.0040: real time    0.0050
    STRESS:  cpu time    0.0360: real time    0.0358
    FORCOR:  cpu time    0.0080: real time    0.0090
    FORHAR:  cpu time    0.0040: real time    0.0028
    MIXING:  cpu time    0.0000: real time    0.0008
    OFIELD:  cpu time    0.0000: real time    0.0005

  FORCE on cell =-STRESS in cart. coord.  units (eV):
  Direction    XX          YY          ZZ          XY          YZ          ZX
  --------------------------------------------------------------------------------------
  Alpha Z     3.36414     3.36414     3.36414
  Ewald     -76.18788   -76.18788   -76.18788    -0.00000    -0.00000     0.00000
  Hartree     4.96942     4.96942     4.96942     0.00000     0.00000     0.00000
  E(xc)     -25.39181   -25.39181   -25.39181    -0.00014    -0.00014    -0.00014
  Local     -29.43492   -29.43492   -29.43491     0.00023     0.00023     0.00023
  n-local    79.42328    80.40164    74.85489     2.27600    -1.15508     0.64980
  augment   -11.50871   -11.50871   -11.50871    -0.00015    -0.00015    -0.00015
  Kinetic    58.40921    56.17419    54.79018     3.52518    -0.80927     0.96503
  Fock        0.00000     0.00000     0.00000     0.00000     0.00000     0.00000
  -------------------------------------------------------------------------------------
  Total       0.49472     0.49472     0.49472    -0.00000     0.00000     0.00000
  in kB      19.80282    19.80282    19.80282    -0.00000     0.00000     0.00000
  external pressure =       19.80 kB  Pullay stress =        0.00 kB


 VOLUME and BASIS-vectors are now :
 -----------------------------------------------------------------------------
  energy-cutoff  :      150.00
  volume of cell :       40.03
      direct lattice vectors                 reciprocal lattice vectors
     0.000000000  2.715000000  2.715000000    -0.184162063  0.184162063  0.184162063
     2.715000000  0.000000000  2.715000000     0.184162063 -0.184162063  0.184162063
     2.715000000  2.715000000  0.000000000     0.184162063  0.184162063 -0.184162063

  length of vectors
     3.839589822  3.839589822  3.839589822     0.318978049  0.318978049  0.318978049


 FORCES acting on ions
    electron-ion (+dipol)            ewald-force                    non-local-force                 convergence-correction
 -----------------------------------------------------------------------------------------------
   0.661E-05 0.661E-05 0.650E-05   -.476E-15 -.149E-14 0.391E-14   -.112E-15 -.105E-15 -.110E-15   -.189E-05 -.189E-05 -.189E-05
   -.661E-05 -.661E-05 -.650E-05   0.623E-15 0.106E-14 -.375E-14   0.123E-15 0.952E-16 0.108E-15   0.189E-05 0.189E-05 0.189E-05
 -----------------------------------------------------------------------------------------------
   -.116E-12 -.517E-13 -.295E-13   0.147E-15 -.426E-15 0.164E-15   0.112E-16 -.961E-17 -.281E-17   -.222E-14 0.664E-15 0.247E-14
 
 
 POSITION                                       TOTAL-FORCE (eV/Angst)
 -----------------------------------------------------------------------------------
      2.71500      2.71500      2.71500        -0.000000     -0.000000     -0.000000
      4.07250      4.07250      4.07250         0.000000      0.000000      0.000000
 -----------------------------------------------------------------------------------
    total drift:                               -0.000000     -0.000000     -0.000000


--------------------------------------------------------------------------------------------------------



  FREE ENERGIE OF THE ION-ELECTRON SYSTEM (eV)
  ---------------------------------------------------
  free  energy   TOTEN  =       -10.73473301 eV

  energy  without entropy=      -10.73443996  energy(sigma->0) =      -10.73458648
 


--------------------------------------------------------------------------------------------------------


    POTLOK:  cpu time    0.0280: real time    0.0407


--------------------------------------------------------------------------------------------------------




--------------------------------------------------------------------------------------------------------


    WAVPRE:  cpu time    0.2920: real time    0.5223
    FEWALD:  cpu time    0.0000: real time    0.0007
    GENKIN:  cpu time    0.0040: real time    0.0045
    ORTHCH:  cpu time    0.0120: real time    0.0121
     LOOP+:  cpu time    2.2560: real time    2.6519


--------------------------------------- Iteration      2(   1)  ---------------------------------------


    POTLOK:  cpu time    0.0160: real time    0.0189
    SETDIJ:  cpu time    0.0080: real time    0.0080
     EDDAV:  cpu time    0.1600: real time    0.1600
       DOS:  cpu time    0.0000: real time    0.0020
    CHARGE:  cpu time    0.0080: real time    0.0073
    MIXING:  cpu time    0.0000: real time    0.0009
    --------------------------------------------
      LOOP:  cpu time    0.1920: real time    0.1980

 eigenvalue-minimisations  :   360
 total energy-change (2. order) :-0.9576091E-02  (-0.2668654E-01)
 number of electron       7.9999996 magnetization 
 augmentation part       -0.4552741 magnetization 

 Broyden mixing:
  rms(total) = 0.32673E-01    rms(broyden)= 0.32159E-01
  rms(prec ) = 0.11839E+00
  weight for this iteration     100.00

 Free energy of the ion-electron system (eV)
  ---------------------------------------------------
  alpha Z        PSCENC =         3.24652521
  Ewald energy   TEWEN  =      -225.86819318
  -Hartree energ DENC   =       -14.73540941
  -exchange      EXHF   =         0.00000000
  -V(xc)+E(xc)   XCENC  =       -18.09477752
  PAW double counting   =        76.71157225      -41.76435749
  entropy T*S    EENTRO =        -0.00010865
  eigenvalues    EBANDS =         3.66869340
  atomic energy  EATOM  =       206.09183643
  Solvation  Ediel_sol  =         0.00000000
  ---------------------------------------------------
  free energy    TOTEN  =       -10.74421897 eV

  energy without entropy =      -10.74411032  energy(sigma->0) =      -10.74416464


--------------------------------------------------------------------------------------------------------




--------------------------------------- Iteration      2(   2)  ---------------------------------------


    POTLOK:  cpu time    0.0160: real time    0.0252
    SETDIJ:  cpu time    0.0080: real time    0.0080
     EDDAV:  cpu time    0.1720: real time    0.1730
       DOS:  cpu time    0.0000: real time    0.0020
    CHARGE:  cpu time    0.0080: real time    0.0074
    MIXING:  cpu time    0.0000: real time    0.0010
    --------------------------------------------
      LOOP:  cpu time    0.2040: real time    0.2165

 eigenvalue-minimisations  :   384
 total energy-change (2. order) : 0.4542065E-02  (-0.3554526E-03)
 number of electron       7.9999996 magnetization 
 augmentation part       -0.4542561 magnetization 

 Broyden mixing:
  rms(total) = 0.18547E-01    rms(broyden)= 0.18522E-01
  rms(prec ) = 0.68024E-01
  weight for this iteration     100.00

 eigenvalues of (default mixing * dielectric matrix)
  average eigenvalue GAMMA=   2.3076
  2.3076

 Free energy of the ion-electron system (eV)
  ---------------------------------------------------
  alpha Z        PSCENC =         3.24652521
  Ewald energy   TEWEN  =      -225.86819318
  -Hartree energ DENC   =       -14.99300933
  -exchange      EXHF   =         0.00000000
  -V(xc)+E(xc)   XCENC  =       -18.08595945
  PAW double counting   =        76.36079194      -41.40502654
  entropy T*S    EENTRO =        -0.00013588
  eigenvalues    EBANDS =         3.91349389
  atomic energy  EATOM  =       206.09183643
  Solvation  Ediel_sol  =         0.00000000
  ---------------------------------------------------
  free energy    TOTEN  =       -10.73967690 eV

  energy without entropy =      -10.73954103  energy(sigma->0) =      -10.73960896


--------------------------------------------------------------------------------------------------------




--------------------------------------- Iteration      2(   3)  ---------------------------------------


    POTLOK:  cpu time    0.0160: real time    0.0220
    SETDIJ:  cpu time    0.0080: real time    0.0080
     EDDAV:  cpu time    0.1680: real time    0.1673
       DOS:  cpu time    0.0000: real time    0.0020
    CHARGE:  cpu time    0.0080: real time    0.0072
    MIXING:  cpu time    0.0000: real time    0.0010
    --------------------------------------------
      LOOP:  cpu time    0.2000: real time    0.2076

 eigenvalue-minimisations  :   376
 total energy-change (2. order) : 0.2403715E-02  (-0.4764585E-03)
 number of electron       7.9999996 magnetization 
 augmentation part       -0.4522374 magnetization 

 Broyden mixing:
  rms(total) = 0.22994E-02    rms(broyden)= 0.22855E-02
  rms(prec ) = 0.52169E-02
  weight for this iteration     100.00

 eigenvalues of (default mixing * dielectric matrix)
  average eigenvalue GAMMA=   2.1400
  2.0269  2.2531

 Free energy of the ion-electron system (eV)
  ---------------------------------------------------
  alpha Z        PSCENC =         3.24652521
  Ewald energy   TEWEN  =      -225.86819318
  -Hartree energ DENC   =       -15.33418658
  -exchange      EXHF   =         0.00000000
  -V(xc)+E(xc)   XCENC  =       -18.07896047
  PAW double counting   =        75.72105777      -40.74888896
  entropy T*S    EENTRO =        -0.00017869
  eigenvalues    EBANDS =         4.23371529
  atomic energy  EATOM  =       206.09183643
  Solvation  Ediel_sol  =         0.00000000
  ---------------------------------------------------
  free energy    TOTEN  =       -10.73727319 eV

  energy without entropy =      -10.73709450  energy(sigma->0) =      -10.73718384


--------------------------------------------------------------------------------------------------------




--------------------------------------- Iteration      2(   4)  ---------------------------------------


    POTLOK:  cpu time    0.0160: real time    0.0244
    SETDIJ:  cpu time    0.0080: real time    0.0080
     EDDAV:  cpu time    0.0960: real time    0.0969
       DOS:  cpu time    0.0040: real time    0.0020
    --------------------------------------------
      LOOP:  cpu time    0.1240: real time    0.1312

 eigenvalue-minimisations  :   192
 total energy-change (2. order) : 0.1326846E-04  (-0.3691548E-05)
 number of electron       7.9999996 magnetization 
 augmentation part       -0.4522374 magnetization 

 Free energy of the ion-electron system (eV)
  ---------------------------------------------------
  alpha Z        PSCENC =         3.24652521
  Ewald energy   TEWEN  =      -225.86819318
  -Hartree energ DENC   =       -15.32943269
  -exchange      EXHF   =         0.00000000
  -V(xc)+E(xc)   XCENC  =       -18.08250175
  PAW double counting   =        75.54287848      -40.56427241
  entropy T*S    EENTRO =        -0.00017591
  eigenvalues    EBANDS =         4.22607589
  atomic energy  EATOM  =       206.09183643
  Solvation  Ediel_sol  =         0.00000000
  ---------------------------------------------------
  free energy    TOTEN  =       -10.73725992 eV

  energy without entropy =      -10.73708401  energy(sigma->0) =      -10.73717196


--------------------------------------------------------------------------------------------------------




 average (electrostatic) potential at core
  the test charge radii are     0.9892
  (the norm of the test charge is              1.0000)
       1 -83.6568       2 -83.6568
 
 
 
 E-fermi :   5.8384     XC(G=0):  -9.2736     alpha+bet :-11.5655


 k-point     1 :       0.0000    0.0000    0.0000
  band No.  band energies     occupation 
      1      -6.2463      2.00000
      2       5.5244      1.97361
      3       5.5244      1.97361
      4       5.5247      1.97345
      5       8.0869      0.00000
      6       8.0869      0.00000
      7       8.0871      0.00000
      8       8.4403      0.00000

 k-point     2 :       0.1429   -0.0000   -0.0000
  band No.  band energies     occupation 
      1      -5.9878      2.00000
      2       3.5888      2.00000
      3       5.1731      2.00000
      4       5.1734      2.00000
      5       7.8524      0.00000
      6       8.5991      0.00000
      7       8.5995      0.00000
      8      10.2352      0.00000

 k-point     3 :       0.2857   -0.0000    0.0000
  band No.  band energies     occupation 
      1      -5.2443      2.00000
      2       1.0178      2.00000
      3       4.6597      2.00000
      4       4.6599      2.00000
      5       7.3172      0.00000
      6       9.0843      0.00000
      7       9.0848      0.00000
      8      12.7225      0.00000

 k-point     4 :       0.4286   -0.0000    0.0000
  band No.  band energies     occupation 
      1      -4.2417      2.00000
      2      -0.9599      2.00000
      3       4.3719      2.00000
      4       4.3722      2.00000
      5       6.9756      0.00000
      6       8.9816      0.00000
      7       8.9820      0.00000
      8      13.2605      0.00000

 k-point     5 :       0.1429    0.1429    0.0000
  band No.  band energies     occupation 
      1      -5.9002      2.00000
      2       3.8426      2.00000
      3       4.5765      2.00000
      4       4.5767      2.00000
      5       7.4268      0.00000
      6       9.4690      0.00000
      7       9.4693      0.00000
      8       9.6916      0.00000

 k-point     6 :       0.2857    0.1429   -0.0000
  band No.  band energies     occupation 
      1      -5.3108      2.00000
      2       1.7735      2.00000
      3       3.9872      2.00000
      4       4.0401      2.00000
      5       7.6197      0.00000
      6       9.2982      0.00000
      7      10.1829      0.00000
      8      10.2628      0.00000

 k-point     7 :       0.4286    0.1429    0.0000
  band No.  band energies     occupation 
      1      -4.3350      2.00000
      2      -0.3519      2.00000
      3       3.3107      2.00000
      4       3.8479      2.00000
      5       7.6705      0.00000
      6       9.2972      0.00000
      7      10.0953      0.00000
      8      11.3261      0.00000

 k-point     8 :      -0.4286    0.1429   -0.0000
  band No.  band energies     occupation 
      1      -3.8003      2.00000
      2      -1.1859      2.00000
      3       2.9051      2.00000
      4       4.0403      2.00000
      5       7.7381      0.00000
      6       9.2466      0.00000
      7       9.7194      0.00000
      8      13.5973      0.00000

 k-point     9 :      -0.2857    0.1429   -0.0000
  band No.  band energies     occupation 
      1      -4.6911      2.00000
      2       0.3081      2.00000
      3       2.9207      2.00000
      4       4.5406      2.00000
      5       8.1058      0.00000
      6       9.4461      0.00000
      7       9.4664      0.00000
      8      12.0630      0.00000

 k-point    10 :      -0.1429    0.1429   -0.0000
  band No.  band energies     occupation 
      1      -5.5641      2.00000
      2       2.3810      2.00000
      3       3.6101      2.00000
      4       5.1273      2.00000
      5       8.4691      0.00000
      6       8.8136      0.00000
      7       9.0700      0.00000
      8      11.0189      0.00000

 k-point    11 :       0.2857    0.2857    0.0000
  band No.  band energies     occupation 
      1      -4.8789      2.00000
      2       1.3414      2.00000
      3       3.4287      2.00000
      4       3.4289      2.00000
      5       6.5122      0.00000
      6       8.2178      0.00000
      7      11.8571      0.00000
      8      11.8574      0.00000

 k-point    12 :       0.4286    0.2857   -0.0000
  band No.  band energies     occupation 
      1      -4.0034      2.00000
      2      -0.1234      2.00000
      3       2.4821      2.00000
      4       3.1715      2.00000
      5       6.8044      0.00000
      6       8.2740      0.00000
      7      12.0321      0.00000
      8      12.2859      0.00000

 k-point    13 :      -0.4286    0.2857    0.0000
  band No.  band energies     occupation 
      1      -3.1215      2.00000
      2      -1.2616      2.00000
      3       1.5592      2.00000
      4       3.3329      2.00000
      5       7.0439      0.00000
      6      10.5037      0.00000
      7      11.7406      0.00000
      8      11.8028      0.00000

 k-point    14 :      -0.2857    0.2857   -0.0000
  band No.  band energies     occupation 
      1      -3.7488      2.00000
      2      -0.5341      2.00000
      3       1.4922      2.00000
      4       3.8707      2.00000
      5       7.6263      0.00000
      6      10.9439      0.00000
      7      11.3370      0.00000
      8      11.9445      0.00000

 k-point    15 :       0.4286    0.4286    0.0000
  band No.  band energies     occupation 
      1      -3.2387      2.00000
      2      -1.0998      2.00000
      3       2.8074      2.00000
      4       2.8075      2.00000
      5       6.1888      0.01322
      6       6.7023      0.00000
      7      14.4736      0.00000
      8      14.4738      0.00000

 k-point    16 :      -0.4286    0.4286   -0.0000
  band No.  band energies     occupation 
      1      -2.3221      2.00000
      2      -2.0328      2.00000
      3       1.9561      2.00000
      4       2.8657      2.00000
      5       6.4865      0.00000
      6       7.7105      0.00000
      7      14.2058      0.00000
      8      14.5341      0.00000

 k-point    17 :       0.4286    0.2857    0.1429
  band No.  band energies     occupation 
      1      -4.5806      2.00000
      2       0.6336      2.00000
      3       2.4892      2.00000
      4       3.7702      2.00000
      5       8.1266      0.00000
      6       9.3452      0.00000
      7       9.6796      0.00000
      8      11.6201      0.00000

 k-point    18 :      -0.4286    0.2857    0.1429
  band No.  band energies     occupation 
      1      -3.5746      2.00000
      2      -0.8523      2.00000
      3       1.9213      2.00000
      4       3.2526      2.00000
      5       8.6104      0.00000
      6       9.0132      0.00000
      7      10.9663      0.00000
      8      12.0925      0.00000

 k-point    19 :      -0.4286    0.4286    0.1429
  band No.  band energies     occupation 
      1      -3.0446      2.00000
      2      -1.1887      2.00000
      3       2.0195      2.00000
      4       2.4210      2.00000
      5       7.7756      0.00000
      6       8.1490      0.00000
      7      11.6207      0.00000
      8      14.0373      0.00000

 k-point    20 :      -0.2857    0.4286    0.1429
  band No.  band energies     occupation 
      1      -2.6275      2.00000
      2      -1.5734      2.00000
      3       1.4086      2.00000
      4       2.5096      2.00000
      5       8.2996      0.00000
      6      10.4164      0.00000
      7      11.0834      0.00000
      8      11.2674      0.00000


--------------------------------------------------------------------------------------------------------


 soft charge-density along one line, spin component           1
         0         1         2         3         4         5         6         7         8         9
 total charge-density along one line
 
 pseudopotential strength for first ion, spin component:           1
 18.459  -0.001   0.000   0.000   0.000  -0.000  -0.000  -0.000
 -0.001   0.006  -0.000  -0.000  -0.000   0.000   0.000   0.000
  0.000  -0.000   4.184  -0.000  -0.000  -0.004   0.000   0.000
  0.000  -0.000  -0.000   4.184  -0.000   0.000  -0.004   0.000
  0.000  -0.000  -0.000  -0.000   4.184   0.000   0.000  -0.004
 -0.000   0.000  -0.004   0.000   0.000   0.005  -0.000  -0.000
 -0.000   0.000   0.000  -0.004   0.000  -0.000   0.005  -0.000
 -0.000   0.000   0.000   0.000  -0.004  -0.000  -0.000   0.005
 total augmentation occupancy for first ion, spin component:           1
  1.496  -0.917   0.000  -0.000  -0.000  -0.000   0.000   0.000
 -0.917   0.934  -0.000   0.000   0.000   0.000  -0.000  -0.000
  0.000  -0.000   0.987   0.000  -0.000  -0.908  -0.000   0.000
 -0.000  -0.000   0.000   0.987  -0.000   0.000  -0.908   0.000
  0.000  -0.000  -0.000   0.000   0.987   0.000  -0.000  -0.908
 -0.000   0.000  -0.908   0.000   0.000   0.893   0.000   0.000
  0.000  -0.000  -0.000  -0.908  -0.000   0.000   0.893   0.000
  0.000  -0.000   0.000   0.000  -0.908  -0.000   0.000   0.893


------------------------ aborting loop because EDIFF is reached ----------------------------------------


    CHARGE:  cpu time    0.0080: real time    0.0070
    FORLOC:  cpu time    0.0000: real time    0.0003
    FORNL :  cpu time    0.0040: real time    0.0047
    STRESS:  cpu time    0.0360: real time    0.0345
    FORCOR:  cpu time    0.0080: real time    0.0087
    FORHAR:  cpu time    0.0040: real time    0.0025
    MIXING:  cpu time    0.0000: real time    0.0007
    OFIELD:  cpu time    0.0000: real time    0.0004

  FORCE on cell =-STRESS in cart. coord.  units (eV):
  Direction    XX          YY          ZZ          XY          YZ          ZX
  --------------------------------------------------------------------------------------
  Alpha Z     3.24653     3.24653     3.24653
  Ewald     -75.28943   -75.28943   -75.28943    -0.00000    -0.00000     0.00000
  Hartree     5.11101     5.11101     5.11101     0.00000     0.00000     0.00000
  E(xc)     -25.18473   -25.18473   -25.18473    -0.00018    -0.00018    -0.00018
  Local     -29.91393   -29.91393   -29.91392     0.00024     0.00025     0.00025
  n-local    78.73775    79.71029    74.21463     2.19856    -1.10662     0.61857
  augment   -11.50199   -11.50199   -11.50199    -0.00017    -0.00017    -0.00017
  Kinetic    57.62002    55.60466    53.71538     3.52213    -0.85697     0.97059
  Fock        0.00000     0.00000     0.00000     0.00000     0.00000     0.00000
  -------------------------------------------------------------------------------------
  Total      -0.33163    -0.33163    -0.33163    -0.00000     0.00000     0.00000
  in kB     -12.81056   -12.81056   -12.81056    -0.00000     0.00000     0.00000
  external pressure =      -12.81 kB  Pullay stress =        0.00 kB


 VOLUME and BASIS-vectors are now :
 -----------------------------------------------------------------------------
  energy-cutoff  :      150.00
  volume of cell :       41.48
      direct lattice vectors                 reciprocal lattice vectors
    -0.000000000  2.747398655  2.747398655    -0.181990334  0.181990334  0.181990334
     2.747398655 -0.000000000  2.747398655     0.181990334 -0.181990334  0.181990334
     2.747398655  2.747398655  0.000000000     0.181990334  0.181990334 -0.181990334

  length of vectors
     3.885408439  3.885408439  3.885408439     0.315216506  0.315216506  0.315216506


 FORCES acting on ions
    electron-ion (+dipol)            ewald-force                    non-local-force                 convergence-correction
 -----------------------------------------------------------------------------------------------
   0.137E-04 0.137E-04 0.133E-04   0.922E-14 -.935E-14 0.105E-13   -.678E-17 -.627E-16 -.417E-16   -.260E-06 -.260E-06 -.260E-06
   -.137E-04 -.137E-04 -.133E-04   -.913E-14 0.918E-14 -.104E-13   0.298E-16 0.510E-16 0.396E-16   0.260E-06 0.260E-06 0.260E-06
 -----------------------------------------------------------------------------------------------
   -.111E-12 -.388E-13 -.339E-13   0.832E-16 -.161E-15 0.103E-15   0.230E-16 -.117E-16 -.206E-17   -.213E-14 0.820E-15 -.433E-14
 
 
 POSITION                                       TOTAL-FORCE (eV/Angst)
 -----------------------------------------------------------------------------------
      2.74740      2.74740      2.74740         0.000000     -0.000000      0.000000
      4.12110      4.12110      4.12110        -0.000000      0.000000     -0.000000
 -----------------------------------------------------------------------------------
    total drift:                               -0.000000     -0.000000     -0.000000


--------------------------------------------------------------------------------------------------------



  FREE ENERGIE OF THE ION-ELECTRON SYSTEM (eV)
  ---------------------------------------------------
  free  energy   TOTEN  =       -10.73725992 eV

  energy  without entropy=      -10.73708401  energy(sigma->0) =      -10.73717196
 
 d Force = 0.0000000E+00[ 0.000E+00, 0.000E+00]  d Energy = 0.2526908E-02-0.253E-02
 d Force = 0.0000000E+00[ 0.000E+00, 0.000E+00]  d Ewald  =-0.2695332E+01 0.270E+01


--------------------------------------------------------------------------------------------------------


    POTLOK:  cpu time    0.0240: real time    0.0376


--------------------------------------------------------------------------------------------------------


 Steepest descent step on ions:
 trial-energy change:   -0.002527  1 .order   -0.002919   -0.017711    0.011872
  (g-gl).g = 0.177E-01      g.g   = 0.177E-01  gl.gl    = 0.000E+00
 g(Force)  = 0.176E-43   g(Stress)= 0.177E-01 ortho     = 0.000E+00
 gamma     =   0.00000
 trial     =   1.00000
 opt step  =   0.59868  (harmonic =   0.59868) maximal distance =0.00000000
 next E    =   -10.740035   (d E  =  -0.00530)


--------------------------------------------------------------------------------------------------------


    WAVPRE:  cpu time    0.0120: real time    0.0328
    FEWALD:  cpu time    0.0000: real time    0.0006
    GENKIN:  cpu time    0.0040: real time    0.0045
    ORTHCH:  cpu time    0.0120: real time    0.0121
     LOOP+:  cpu time    0.8840: real time    1.0102


--------------------------------------- Iteration      3(   1)  ---------------------------------------


    POTLOK:  cpu time    0.0160: real time    0.0196
    SETDIJ:  cpu time    0.0080: real time    0.0081
     EDDAV:  cpu time    0.1560: real time    0.1578
       DOS:  cpu time    0.0040: real time    0.0020
    CHARGE:  cpu time    0.0040: real time    0.0074
    MIXING:  cpu time    0.0040: real time    0.0009
    --------------------------------------------
      LOOP:  cpu time    0.1920: real time    0.1965

 eigenvalue-minimisations  :   352
 total energy-change (2. order) :-0.3607207E-02  (-0.4399086E-02)
 number of electron       8.0000015 magnetization 
 augmentation part       -0.4512060 magnetization 

 Broyden mixing:
  rms(total) = 0.13347E-01    rms(broyden)= 0.13134E-01
  rms(prec ) = 0.48192E-01
  weight for this iteration     100.00

 Free energy of the ion-electron system (eV)
  ---------------------------------------------------
  alpha Z        PSCENC =         3.29305811
  Ewald energy   TEWEN  =      -226.94221143
  -Hartree energ DENC   =       -15.40518612
  -exchange      EXHF   =         0.00000000
  -V(xc)+E(xc)   XCENC  =       -18.01421628
  PAW double counting   =        75.49388977      -40.51346450
  entropy T*S    EENTRO =        -0.00025632
  eigenvalues    EBANDS =         5.25566995
  atomic energy  EATOM  =       206.09183643
  Solvation  Ediel_sol  =         0.00000000
  ---------------------------------------------------
  free energy    TOTEN  =       -10.74088040 eV

  energy without entropy =      -10.74062408  energy(sigma->0) =      -10.74075224


--------------------------------------------------------------------------------------------------------




--------------------------------------- Iteration      3(   2)  ---------------------------------------


    POTLOK:  cpu time    0.0160: real time    0.0234
    SETDIJ:  cpu time    0.0040: real time    0.0079
     EDDAV:  cpu time    0.1680: real time    0.1672
       DOS:  cpu time    0.0040: real time    0.0020
    CHARGE:  cpu time    0.0040: real time    0.0073
    MIXING:  cpu time    0.0040: real time    0.0010
    --------------------------------------------
      LOOP:  cpu time    0.2000: real time    0.2088

 eigenvalue-minimisations  :   368
 total energy-change (2. order) : 0.7398421E-03  (-0.5780171E-04)
 number of electron       8.0000015 magnetization 
 augmentation part       -0.4516258 magnetization 

 Broyden mixing:
  rms(total) = 0.75711E-02    rms(broyden)= 0.75606E-02
  rms(prec ) = 0.27646E-01
  weight for this iteration     100.00

 eigenvalues of (default mixing * dielectric matrix)
  average eigenvalue GAMMA=   2.3074
  2.3074

 Free energy of the ion-electron system (eV)
  ---------------------------------------------------
  alpha Z        PSCENC =         3.29305811
  Ewald energy   TEWEN  =      -226.94221143
  -Hartree energ DENC   =       -15.29854461
  -exchange      EXHF   =         0.00000000
  -V(xc)+E(xc)   XCENC  =       -18.01776163
  PAW double counting   =        75.63270884      -40.65563189
  entropy T*S    EENTRO =        -0.00023663
  eigenvalues    EBANDS =         5.15664225
  atomic energy  EATOM  =       206.09183643
  Solvation  Ediel_sol  =         0.00000000
  ---------------------------------------------------
  free energy    TOTEN  =       -10.74014055 eV

  energy without entropy =      -10.73990393  energy(sigma->0) =      -10.74002224


--------------------------------------------------------------------------------------------------------




--------------------------------------- Iteration      3(   3)  ---------------------------------------


    POTLOK:  cpu time    0.0120: real time    0.0231
    SETDIJ:  cpu time    0.0080: real time    0.0080
     EDDAV:  cpu time    0.1240: real time    0.1220
       DOS:  cpu time    0.0000: real time    0.0021
    --------------------------------------------
      LOOP:  cpu time    0.1440: real time    0.1555

 eigenvalue-minimisations  :   264
 total energy-change (2. order) : 0.3817594E-03  (-0.7664876E-04)
 number of electron       8.0000015 magnetization 
 augmentation part       -0.4516258 magnetization 

 Free energy of the ion-electron system (eV)
  ---------------------------------------------------
  alpha Z        PSCENC =         3.29305811
  Ewald energy   TEWEN  =      -226.94221143
  -Hartree energ DENC   =       -15.16104458
  -exchange      EXHF   =         0.00000000
  -V(xc)+E(xc)   XCENC  =       -18.02015453
  PAW double counting   =        75.88847823      -40.91791349
  entropy T*S    EENTRO =        -0.00021319
  eigenvalues    EBANDS =         5.02840566
  atomic energy  EATOM  =       206.09183643
  Solvation  Ediel_sol  =         0.00000000
  ---------------------------------------------------
  free energy    TOTEN  =       -10.73975880 eV

  energy without entropy =      -10.73954561  energy(sigma->0) =      -10.73965220


--------------------------------------------------------------------------------------------------------




 average (electrostatic) potential at core
  the test charge radii are     0.9892
  (the norm of the test charge is              1.0000)
       1 -83.4974       2 -83.4974
 
 
 
 E-fermi :   5.9666     XC(G=0):  -9.3274     alpha+bet :-11.7313


 k-point     1 :       0.0000    0.0000    0.0000
  band No.  band energies     occupation 
      1      -6.2011      2.00000
      2       5.6650      1.96709
      3       5.6650      1.96709
      4       5.6653      1.96691
      5       8.2332      0.00000
      6       8.2332      0.00000
      7       8.2334      0.00000
      8       8.7422      0.00000

 k-point     2 :       0.1429   -0.0000   -0.0000
  band No.  band energies     occupation 
      1      -5.9394      2.00000
      2       3.7240      2.00000
      3       5.3086      2.00000
      4       5.3089      2.00000
      5       8.0419      0.00000
      6       8.7524      0.00000
      7       8.7527      0.00000
      8      10.4929      0.00000

 k-point     3 :       0.2857   -0.0000    0.0000
  band No.  band energies     occupation 
      1      -5.1861      2.00000
      2       1.1270      2.00000
      3       4.7898      2.00000
      4       4.7900      2.00000
      5       7.5098      0.00000
      6       9.2338      0.00000
      7       9.2342      0.00000
      8      12.9690      0.00000

 k-point     4 :       0.4286   -0.0000    0.0000
  band No.  band energies     occupation 
      1      -4.1671      2.00000
      2      -0.8768      2.00000
      3       4.4998      2.00000
      4       4.5000      2.00000
      5       7.1679      0.00000
      6       9.1188      0.00000
      7       9.1192      0.00000
      8      13.4266      0.00000

 k-point     5 :       0.1429    0.1429    0.0000
  band No.  band energies     occupation 
      1      -5.8509      2.00000
      2       3.9979      2.00000
      3       4.7018      2.00000
      4       4.7020      2.00000
      5       7.5650      0.00000
      6       9.6357      0.00000
      7       9.6359      0.00000
      8       9.9416      0.00000

 k-point     6 :       0.2857    0.1429   -0.0000
  band No.  band energies     occupation 
      1      -5.2539      2.00000
      2       1.9005      2.00000
      3       4.1131      2.00000
      4       4.1592      2.00000
      5       7.7633      0.00000
      6       9.5030      0.00000
      7      10.3231      0.00000
      8      10.4333      0.00000

 k-point     7 :       0.4286    0.1429    0.0000
  band No.  band energies     occupation 
      1      -4.2637      2.00000
      2      -0.2542      2.00000
      3       3.4302      2.00000
      4       3.9662      2.00000
      5       7.8229      0.00000
      6       9.4739      0.00000
      7      10.2502      0.00000
      8      11.4942      0.00000

 k-point     8 :      -0.4286    0.1429   -0.0000
  band No.  band energies     occupation 
      1      -3.7184      2.00000
      2      -1.1025      2.00000
      3       3.0182      2.00000
      4       4.1624      2.00000
      5       7.9017      0.00000
      6       9.4092      0.00000
      7       9.8665      0.00000
      8      13.7985      0.00000

 k-point     9 :      -0.2857    0.1429   -0.0000
  band No.  band energies     occupation 
      1      -4.6253      2.00000
      2       0.4154      2.00000
      3       3.0296      2.00000
      4       4.6700      2.00000
      5       8.2857      0.00000
      6       9.5986      0.00000
      7       9.6245      0.00000
      8      12.2682      0.00000

 k-point    10 :      -0.1429    0.1429   -0.0000
  band No.  band energies     occupation 
      1      -5.5104      2.00000
      2       2.5150      2.00000
      3       3.7209      2.00000
      4       5.2647      2.00000
      5       8.6634      0.00000
      6       8.9673      0.00000
      7       9.2339      0.00000
      8      11.2292      0.00000

 k-point    11 :       0.2857    0.2857    0.0000
  band No.  band energies     occupation 
      1      -4.8167      2.00000
      2       1.4796      2.00000
      3       3.5398      2.00000
      4       3.5400      2.00000
      5       6.6379      0.00000
      6       8.3510      0.00000
      7      12.0520      0.00000
      8      12.0523      0.00000

 k-point    12 :       0.4286    0.2857   -0.0000
  band No.  band energies     occupation 
      1      -3.9295      2.00000
      2      -0.0035      2.00000
      3       2.5788      2.00000
      4       3.2800      2.00000
      5       6.9298      0.00000
      6       8.4113      0.00000
      7      12.2430      0.00000
      8      12.4726      0.00000

 k-point    13 :      -0.4286    0.2857    0.0000
  band No.  band energies     occupation 
      1      -3.0317      2.00000
      2      -1.1611      2.00000
      3       1.6424      2.00000
      4       3.4442      2.00000
      5       7.1715      0.00000
      6      10.6625      0.00000
      7      11.9555      0.00000
      8      11.9792      0.00000

 k-point    14 :      -0.2857    0.2857   -0.0000
  band No.  band energies     occupation 
      1      -3.6692      2.00000
      2      -0.4231      2.00000
      3       1.5726      2.00000
      4       3.9898      2.00000
      5       7.7675      0.00000
      6      11.1213      0.00000
      7      11.5147      0.00000
      8      12.1687      0.00000

 k-point    15 :       0.4286    0.4286    0.0000
  band No.  band energies     occupation 
      1      -3.1558      2.00000
      2      -0.9897      2.00000
      3       2.9114      2.00000
      4       2.9115      2.00000
      5       6.3058      0.01648
      6       6.8185      0.00000
      7      14.7028      0.00000
      8      14.7030      0.00000

 k-point    16 :      -0.4286    0.4286   -0.0000
  band No.  band energies     occupation 
      1      -2.2245      2.00000
      2      -1.9352      2.00000
      3       2.0427      2.00000
      4       2.9707      2.00000
      5       6.6043      0.00001
      6       7.8448      0.00000
      7      14.4317      0.00000
      8      14.7911      0.00000

 k-point    17 :       0.4286    0.2857    0.1429
  band No.  band energies     occupation 
      1      -4.5139      2.00000
      2       0.7584      2.00000
      3       2.5852      2.00000
      4       3.8868      2.00000
      5       8.2729      0.00000
      6       9.5199      0.00000
      7       9.8315      0.00000
      8      11.8101      0.00000

 k-point    18 :      -0.4286    0.2857    0.1429
  band No.  band energies     occupation 
      1      -3.4921      2.00000
      2      -0.7500      2.00000
      3       2.0145      2.00000
      4       3.3593      2.00000
      5       8.7625      0.00000
      6       9.1687      0.00000
      7      11.1438      0.00000
      8      12.2811      0.00000

 k-point    19 :      -0.4286    0.4286    0.1429
  band No.  band energies     occupation 
      1      -2.9573      2.00000
      2      -1.0779      2.00000
      3       2.1080      2.00000
      4       2.5138      2.00000
      5       7.9136      0.00000
      6       8.2855      0.00000
      7      11.8116      0.00000
      8      14.2692      0.00000

 k-point    20 :      -0.2857    0.4286    0.1429
  band No.  band energies     occupation 
      1      -2.5314      2.00000
      2      -1.4688      2.00000
      3       1.4849      2.00000
      4       2.6043      2.00000
      5       8.4419      0.00000
      6      10.5653      0.00000
      7      11.2799      0.00000
      8      11.4513      0.00000


--------------------------------------------------------------------------------------------------------


 soft charge-density along one line, spin component           1
         0         1         2         3         4         5         6         7         8         9
 total charge-density along one line
 
 pseudopotential strength for first ion, spin component:           1
 18.442  -0.001   0.000   0.000   0.000  -0.000  -0.000  -0.000
 -0.001   0.006  -0.000  -0.000  -0.000   0.000   0.000   0.000
  0.000  -0.000   4.182  -0.000  -0.000  -0.005   0.000   0.000
  0.000  -0.000  -0.000   4.182  -0.000   0.000  -0.005   0.000
  0.000  -0.000  -0.000  -0.000   4.182   0.000   0.000  -0.005
 -0.000   0.000  -0.005   0.000   0.000   0.005  -0.000  -0.000
 -0.000   0.000   0.000  -0.005   0.000  -0.000   0.005  -0.000
 -0.000   0.000   0.000   0.000  -0.005  -0.000  -0.000   0.005
 total augmentation occupancy for first ion, spin component:           1
  1.490  -0.962  -0.000   0.000   0.000  -0.000   0.000  -0.000
 -0.962   0.997   0.000   0.000  -0.000  -0.000   0.000   0.000
  0.000   0.000   0.996   0.000   0.000  -0.918  -0.000   0.000
  0.000   0.000  -0.000   0.996   0.000  -0.000  -0.918   0.000
  0.000  -0.000   0.000   0.000   0.996  -0.000  -0.000  -0.918
  0.000  -0.000  -0.918  -0.000  -0.000   0.906  -0.000   0.000
  0.000   0.000  -0.000  -0.918  -0.000  -0.000   0.906   0.000
 -0.000  -0.000   0.000   0.000  -0.918   0.000  -0.000   0.906


------------------------ aborting loop because EDIFF is reached ----------------------------------------


    CHARGE:  cpu time    0.0080: real time    0.0069
    FORLOC:  cpu time    0.0000: real time    0.0003
    FORNL :  cpu time    0.0040: real time    0.0047
    STRESS:  cpu time    0.0360: real time    0.0350
    FORCOR:  cpu time    0.0080: real time    0.0087
    FORHAR:  cpu time    0.0000: real time    0.0026
    MIXING:  cpu time    0.0040: real time    0.0006
    OFIELD:  cpu time    0.0000: real time    0.0004

  FORCE on cell =-STRESS in cart. coord.  units (eV):
  Direction    XX          YY          ZZ          XY          YZ          ZX
  --------------------------------------------------------------------------------------
  Alpha Z     3.29306     3.29306     3.29306
  Ewald     -75.64744   -75.64744   -75.64744     0.00000    -0.00000     0.00000
  Hartree     5.05465     5.05465     5.05465     0.00000     0.00000     0.00000
  E(xc)     -25.26931   -25.26931   -25.26930    -0.00018    -0.00018    -0.00018
  Local     -29.71996   -29.71996   -29.71996     0.00024     0.00024     0.00024
  n-local    78.99665    79.97163    74.45499     2.22887    -1.12572     0.63138
  augment   -11.50037   -11.50037   -11.50037    -0.00017    -0.00017    -0.00017
  Kinetic    57.93137    55.83121    54.13770     3.52345    -0.83969     0.96925
  Fock        0.00000     0.00000     0.00000     0.00000     0.00000     0.00000
  -------------------------------------------------------------------------------------
  Total      -0.01485    -0.01485    -0.01485     0.00000     0.00000    -0.00000
  in kB      -0.58194    -0.58194    -0.58194     0.00000     0.00000    -0.00000
  external pressure =       -0.58 kB  Pullay stress =        0.00 kB


 VOLUME and BASIS-vectors are now :
 -----------------------------------------------------------------------------
  energy-cutoff  :      150.00
  volume of cell :       40.89
      direct lattice vectors                 reciprocal lattice vectors
    -0.000000000  2.734396419  2.734396419    -0.182855711  0.182855711  0.182855711
     2.734396419 -0.000000000  2.734396419     0.182855711 -0.182855711  0.182855711
     2.734396419  2.734396419  0.000000000     0.182855711  0.182855711 -0.182855711

  length of vectors
     3.867020500  3.867020500  3.867020500     0.316715381  0.316715381  0.316715381


 FORCES acting on ions
    electron-ion (+dipol)            ewald-force                    non-local-force                 convergence-correction
 -----------------------------------------------------------------------------------------------
   0.108E-04 0.108E-04 0.106E-04   0.217E-14 0.726E-15 0.238E-15   -.192E-17 -.297E-16 -.158E-16   0.668E-06 0.668E-06 0.668E-06
   -.108E-04 -.108E-04 -.106E-04   -.191E-14 -.145E-14 -.810E-15   -.230E-18 0.275E-16 0.186E-16   -.668E-06 -.668E-06 -.668E-06
 -----------------------------------------------------------------------------------------------
   -.119E-12 -.316E-13 -.287E-13   0.253E-15 -.723E-15 -.572E-15   -.215E-17 -.215E-17 0.288E-17   -.458E-14 -.139E-14 -.336E-15
 
 
 POSITION                                       TOTAL-FORCE (eV/Angst)
 -----------------------------------------------------------------------------------
      2.73440      2.73440      2.73440        -0.000000      0.000000      0.000000
      4.10159      4.10159      4.10159         0.000000     -0.000000     -0.000000
 -----------------------------------------------------------------------------------
    total drift:                               -0.000000     -0.000000     -0.000000


--------------------------------------------------------------------------------------------------------



  FREE ENERGIE OF THE ION-ELECTRON SYSTEM (eV)
  ---------------------------------------------------
  free  energy   TOTEN  =       -10.73975880 eV

  energy  without entropy=      -10.73954561  energy(sigma->0) =      -10.73965220
 
 d Force = 0.0000000E+00[ 0.000E+00, 0.000E+00]  d Energy = 0.2498874E-02-0.250E-02
 d Force = 0.0000000E+00[ 0.000E+00, 0.000E+00]  d Ewald  = 0.1074018E+01-0.107E+01


--------------------------------------------------------------------------------------------------------


    POTLOK:  cpu time    0.0240: real time    0.0403


--------------------------------------------------------------------------------------------------------




--------------------------------------------------------------------------------------------------------


  
 reached required accuracy - stopping structural energy minimisation
 writing wavefunctions
     LOOP+:  cpu time    0.7240: real time    0.9051
    4ORBIT:  cpu time    0.0000: real time    0.0000

 total amount of memory used by VASP MPI-rank0    30521. kBytes
=======================================================================

   base      :      30000. kBytes
   nonl-proj :        230. kBytes
   fftplans  :         66. kBytes
   grid      :        158. kBytes
   one-center:          6. kBytes
   wavefun   :         61. kBytes
 
  
  
 General timing and accounting informations for this job:
 ========================================================
  
                  Total CPU time used (sec):        7.648
                            User time (sec):        6.068
                          System time (sec):        1.580
                         Elapsed time (sec):        9.643
  
                   Maximum memory used (kb):        9396.
                   Average memory used (kb):           0.
  
                          Minor page faults:        37982
                          Major page faults:           30
                 Voluntary context switches:        19957
