<?xml version="1.0" encoding="ISO-8859-1"?>
<modeling>
 <generator>
  <i name="program" type="string">vasp </i>
  <i name="version" type="string">5.4.4.18Apr17-6-g9f103f2a35  </i>
  <i name="subversion" type="string">(build Dec 09 2018 21:25:21) complex            parallel </i>
  <i name="platform" type="string">IFC18.0.1.163_CrayMPICH7.7.0_MKL18.0.1.163 </i>
  <i name="date" type="string">2019 03 20 </i>
  <i name="time" type="string">09:44:07 </i>
 </generator>
 <incar>
  <i type="string" name="PREC">normal</i>
  <i type="int" name="IBRION">     2</i>
  <i name="EDIFF">      0.00040000</i>
  <i name="EDIFFG">     -0.01000000</i>
  <i type="int" name="NSW">    15</i>
  <i type="int" name="ISIF">     3</i>
  <i name="ENCUT">    150.00000000</i>
  <i type="int" name="NBANDS">     8</i>
  <i type="logical" name="LREAL"> F  </i>
  <i type="int" name="ISMEAR">     0</i>
  <i name="SIGMA">      0.20000000</i>
  <v type="int" name="KPOINT_BSE">    -1     0     0     0</v>
 </incar>
 <structure name="primitive_cell" >
  <crystal>
   <varray name="basis" >
    <v>       0.00000000       2.71500000       2.71500000 </v>
    <v>       2.71500000       0.00000000       2.71500000 </v>
    <v>       2.71500000       2.71500000       0.00000000 </v>
   </varray>
   <i name="volume">     40.02575175 </i>
   <varray name="rec_basis" >
    <v>      -0.18416206       0.18416206       0.18416206 </v>
    <v>       0.18416206      -0.18416206       0.18416206 </v>
    <v>       0.18416206       0.18416206      -0.18416206 </v>
   </varray>
  </crystal>
  <varray name="positions" >
   <v>      -0.50000000      -0.50000000      -0.50000000 </v>
   <v>      -0.25000000      -0.25000000      -0.25000000 </v>
  </varray>
 </structure>
 <varray name="primitive_index" >
  <v type="int" >        1 </v>
  <v type="int" >        2 </v>
 </varray>
 <kpoints>
  <generation param="Monkhorst-Pack">
   <v type="int" name="divisions">       7        7        7 </v>
   <v name="usershift">      0.00000000       0.00000000       0.00000000 </v>
   <v name="genvec1">      0.14285714      -0.00000000       0.00000000 </v>
   <v name="genvec2">     -0.00000000       0.14285714      -0.00000000 </v>
   <v name="genvec3">      0.00000000       0.00000000       0.14285714 </v>
   <v name="shift">      0.00000000       0.00000000       0.00000000 </v>
  </generation>
  <varray name="kpointlist" >
   <v>       0.00000000       0.00000000       0.00000000 </v>
   <v>       0.14285714      -0.00000000      -0.00000000 </v>
   <v>       0.28571429      -0.00000000       0.00000000 </v>
   <v>       0.42857143      -0.00000000       0.00000000 </v>
   <v>       0.14285714       0.14285714       0.00000000 </v>
   <v>       0.28571429       0.14285714      -0.00000000 </v>
   <v>       0.42857143       0.14285714       0.00000000 </v>
   <v>      -0.42857143       0.14285714      -0.00000000 </v>
   <v>      -0.28571429       0.14285714      -0.00000000 </v>
   <v>      -0.14285714       0.14285714      -0.00000000 </v>
   <v>       0.28571429       0.28571429       0.00000000 </v>
   <v>       0.42857143       0.28571429      -0.00000000 </v>
   <v>      -0.42857143       0.28571429       0.00000000 </v>
   <v>      -0.28571429       0.28571429      -0.00000000 </v>
   <v>       0.42857143       0.42857143       0.00000000 </v>
   <v>      -0.42857143       0.42857143      -0.00000000 </v>
   <v>       0.42857143       0.28571429       0.14285714 </v>
   <v>      -0.42857143       0.28571429       0.14285714 </v>
   <v>      -0.42857143       0.42857143       0.14285714 </v>
   <v>      -0.28571429       0.42857143       0.14285714 </v>
  </varray>
  <varray name="weights" >
   <v>       0.00291545 </v>
   <v>       0.02332362 </v>
   <v>       0.02332362 </v>
   <v>       0.02332362 </v>
   <v>       0.01749271 </v>
   <v>       0.06997085 </v>
   <v>       0.06997085 </v>
   <v>       0.06997085 </v>
   <v>       0.06997085 </v>
   <v>       0.03498542 </v>
   <v>       0.01749271 </v>
   <v>       0.06997085 </v>
   <v>       0.06997085 </v>
   <v>       0.03498542 </v>
   <v>       0.01749271 </v>
   <v>       0.03498542 </v>
   <v>       0.06997085 </v>
   <v>       0.13994169 </v>
   <v>       0.06997085 </v>
   <v>       0.06997085 </v>
  </varray>
 </kpoints>
 <parameters>
  <separator name="general" >
   <i type="string" name="SYSTEM">unknown system</i>
   <i type="logical" name="LCOMPAT"> F  </i>
  </separator>
  <separator name="electronic" >
   <i type="string" name="PREC">normal</i>
   <i name="ENMAX">    150.00000000</i>
   <i name="ENAUG">    322.06900000</i>
   <i name="EDIFF">      0.00040000</i>
   <i type="int" name="IALGO">    38</i>
   <i type="int" name="IWAVPR">    11</i>
   <i type="int" name="NBANDS">     8</i>
   <i name="NELECT">      8.00000000</i>
   <i type="int" name="TURBO">     0</i>
   <i type="int" name="IRESTART">     0</i>
   <i type="int" name="NREBOOT">     0</i>
   <i type="int" name="NMIN">     0</i>
   <i name="EREF">      0.00000000</i>
   <separator name="electronic smearing" >
    <i type="int" name="ISMEAR">     0</i>
    <i name="SIGMA">      0.20000000</i>
    <i name="KSPACING">      0.50000000</i>
    <i type="logical" name="KGAMMA"> T  </i>
   </separator>
   <separator name="electronic projectors" >
    <i type="logical" name="LREAL"> F  </i>
    <v name="ROPT">      0.00000000</v>
    <i type="int" name="LMAXPAW">  -100</i>
    <i type="int" name="LMAXMIX">     2</i>
    <i type="logical" name="NLSPLINE"> F  </i>
   </separator>
   <separator name="electronic startup" >
    <i type="int" name="ISTART">     0</i>
    <i type="int" name="ICHARG">     2</i>
    <i type="int" name="INIWAV">     1</i>
   </separator>
   <separator name="electronic spin" >
    <i type="int" name="ISPIN">     1</i>
    <i type="logical" name="LNONCOLLINEAR"> F  </i>
    <v name="MAGMOM">      1.00000000      1.00000000</v>
    <i name="NUPDOWN">     -1.00000000</i>
    <i type="logical" name="LSORBIT"> F  </i>
    <v name="SAXIS">      0.00000000      0.00000000      1.00000000</v>
    <i type="logical" name="LSPIRAL"> F  </i>
    <v name="QSPIRAL">      0.00000000      0.00000000      0.00000000</v>
    <i type="logical" name="LZEROZ"> F  </i>
   </separator>
   <separator name="electronic exchange-correlation" >
    <i type="logical" name="LASPH"> F  </i>
    <i type="logical" name="LMETAGGA"> F  </i>
   </separator>
   <separator name="electronic convergence" >
    <i type="int" name="NELM">    60</i>
    <i type="int" name="NELMDL">    -5</i>
    <i type="int" name="NELMIN">     2</i>
    <i name="ENINI">    150.00000000</i>
    <separator name="electronic convergence detail" >
     <i type="logical" name="LDIAG"> T  </i>
     <i type="logical" name="LSUBROT"> F  </i>
     <i name="WEIMIN">      0.00100000</i>
     <i name="EBREAK">      0.00001250</i>
     <i name="DEPER">      0.30000000</i>
     <i type="int" name="NRMM">     4</i>
     <i name="TIME">      0.40000000</i>
    </separator>
   </separator>
   <separator name="electronic mixer" >
    <i name="AMIX">      0.40000000</i>
    <i name="BMIX">      1.00000000</i>
    <i name="AMIN">      0.10000000</i>
    <i name="AMIX_MAG">      1.60000000</i>
    <i name="BMIX_MAG">      1.00000000</i>
    <separator name="electronic mixer details" >
     <i type="int" name="IMIX">     4</i>
     <i type="logical" name="MIXFIRST"> F  </i>
     <i type="int" name="MAXMIX">   -45</i>
     <i name="WC">    100.00000000</i>
     <i type="int" name="INIMIX">     1</i>
     <i type="int" name="MIXPRE">     1</i>
     <i type="int" name="MREMOVE">     5</i>
    </separator>
   </separator>
   <separator name="electronic dipolcorrection" >
    <i type="logical" name="LDIPOL"> F  </i>
    <i type="logical" name="LMONO"> F  </i>
    <i type="int" name="IDIPOL">     0</i>
    <i name="EPSILON">      1.00000000</i>
    <v name="DIPOL">   -100.00000000   -100.00000000   -100.00000000</v>
    <i name="EFIELD">      0.00000000</i>
   </separator>
  </separator>
  <separator name="grids" >
   <i type="int" name="NGX">    12</i>
   <i type="int" name="NGY">    12</i>
   <i type="int" name="NGZ">    12</i>
   <i type="int" name="NGXF">    24</i>
   <i type="int" name="NGYF">    24</i>
   <i type="int" name="NGZF">    24</i>
   <i type="logical" name="ADDGRID"> F  </i>
  </separator>
  <separator name="ionic" >
   <i type="int" name="NSW">    15</i>
   <i type="int" name="IBRION">     2</i>
   <i type="int" name="MDALGO">     0</i>
   <i type="int" name="ISIF">     3</i>
   <i name="PSTRESS">      0.00000000</i>
   <i name="EDIFFG">     -0.01000000</i>
   <i type="int" name="NFREE">     1</i>
   <i name="POTIM">      0.50000000</i>
   <i name="SMASS">     -3.00000000</i>
   <i name="SCALEE">      1.00000000</i>
  </separator>
  <separator name="ionic md" >
   <i name="TEBEG">      0.00010000</i>
   <i name="TEEND">      0.00010000</i>
   <i type="int" name="NBLOCK">     1</i>
   <i type="int" name="KBLOCK">    15</i>
   <i type="int" name="NPACO">   256</i>
   <i name="APACO">     16.00000000</i>
  </separator>
  <separator name="symmetry" >
   <i type="int" name="ISYM">     2</i>
   <i name="SYMPREC">      0.00001000</i>
  </separator>
  <separator name="dos" >
   <i type="int" name="LORBIT">     0</i>
   <v name="RWIGS">     -1.00000000</v>
   <i type="int" name="NEDOS">   301</i>
   <i name="EMIN">     10.00000000</i>
   <i name="EMAX">    -10.00000000</i>
   <i name="EFERMI">      0.00000000</i>
  </separator>
  <separator name="writing" >
   <i type="int" name="NWRITE">     2</i>
   <i type="logical" name="LWAVE"> T  </i>
   <i type="logical" name="LDOWNSAMPLE"> F  </i>
   <i type="logical" name="LCHARG"> T  </i>
   <i type="logical" name="LPARD"> F  </i>
   <i type="logical" name="LVTOT"> F  </i>
   <i type="logical" name="LVHAR"> F  </i>
   <i type="logical" name="LELF"> F  </i>
   <i type="logical" name="LOPTICS"> F  </i>
   <v name="STM">      0.00000000      0.00000000      0.00000000      0.00000000      0.00000000      0.00000000      0.00000000</v>
  </separator>
  <separator name="performance" >
   <i type="int" name="NPAR">     8</i>
   <i type="int" name="NSIM">     4</i>
   <i type="int" name="NBLK">    -1</i>
   <i type="logical" name="LPLANE"> T  </i>
   <i type="logical" name="LSCALAPACK"> T  </i>
   <i type="logical" name="LSCAAWARE"> F  </i>
   <i type="logical" name="LSCALU"> F  </i>
   <i type="logical" name="LASYNC"> F  </i>
   <i type="logical" name="LORBITALREAL"> F  </i>
  </separator>
  <separator name="miscellaneous" >
   <i type="int" name="IDIOT">     3</i>
   <i type="int" name="ISPECIAL">     0</i>
   <i type="logical" name="LMUSIC"> F  </i>
   <v name="POMASS">     28.08500000</v>
   <v name="DARWINR">      0.00000000</v>
   <v name="DARWINV">      1.00000000</v>
   <i type="logical" name="LCORR"> T  </i>
  </separator>
  <i type="logical" name="GGA_COMPAT"> T  </i>
  <i type="logical" name="LBERRY"> F  </i>
  <i type="int" name="ICORELEVEL">     0</i>
  <i type="logical" name="LDAU"> F  </i>
  <i type="int" name="I_CONSTRAINED_M">     0</i>
  <separator name="electronic exchange-correlation" >
   <i type="string" name="GGA">--</i>
   <i type="int" name="VOSKOWN">     0</i>
   <i type="logical" name="LHFCALC"> F  </i>
   <i type="string" name="PRECFOCK"></i>
   <i type="logical" name="LSYMGRAD"> F  </i>
   <i type="logical" name="LHFONE"> F  </i>
   <i type="logical" name="LRHFCALC"> F  </i>
   <i type="logical" name="LTHOMAS"> F  </i>
   <i type="logical" name="LMODELHF"> F  </i>
   <i name="ENCUT4O">     -1.00000000</i>
   <i type="int" name="EXXOEP">     0</i>
   <i type="int" name="FOURORBIT">     0</i>
   <i name="AEXX">      0.00000000</i>
   <i name="HFALPHA">      0.00000000</i>
   <i name="MCALPHA">      0.00000000</i>
   <i name="ALDAX">      1.00000000</i>
   <i name="AGGAX">      1.00000000</i>
   <i name="ALDAC">      1.00000000</i>
   <i name="AGGAC">      1.00000000</i>
   <i type="int" name="NKREDX">     1</i>
   <i type="int" name="NKREDY">     1</i>
   <i type="int" name="NKREDZ">     1</i>
   <i type="logical" name="SHIFTRED"> F  </i>
   <i type="logical" name="ODDONLY"> F  </i>
   <i type="logical" name="EVENONLY"> F  </i>
   <i type="int" name="LMAXFOCK">     0</i>
   <i type="int" name="NMAXFOCKAE">     0</i>
   <i type="logical" name="LFOCKAEDFT"> F  </i>
   <i name="HFSCREEN">      0.00000000</i>
   <i name="HFSCREENC">      0.00000000</i>
   <i type="int" name="NBANDSGWLOW">     0</i>
  </separator>
  <separator name="vdW DFT" >
   <i type="logical" name="LUSE_VDW"> F  </i>
   <i name="Zab_VDW">     -0.84910000</i>
   <i name="PARAM1">      0.12340000</i>
   <i name="PARAM2">      1.00000000</i>
   <i name="PARAM3">      0.00000000</i>
  </separator>
  <separator name="model GW" >
   <i type="int" name="MODEL_GW">     0</i>
   <i name="MODEL_EPS0">     12.00772552</i>
   <i name="MODEL_ALPHA">      1.00000000</i>
  </separator>
  <separator name="linear response parameters" >
   <i type="logical" name="LEPSILON"> F  </i>
   <i type="logical" name="LRPA"> F  </i>
   <i type="logical" name="LNABLA"> F  </i>
   <i type="logical" name="LVEL"> F  </i>
   <i type="int" name="KINTER">     0</i>
   <i name="CSHIFT">      0.10000000</i>
   <i name="OMEGAMAX">     -1.00000000</i>
   <i name="DEG_THRESHOLD">      0.00200000</i>
   <i name="RTIME">     -0.10000000</i>
   <i name="WPLASMAI">      0.00000000</i>
   <v name="DFIELD">      0.00000000      0.00000000      0.00000000</v>
   <v name="WPLASMA">      0.00000000      0.00000000      0.00000000      0.00000000      0.00000000      0.00000000      0.00000000      0.00000000      0.00000000</v>
  </separator>
  <separator name="orbital magnetization" >
   <i type="logical" name="NUCIND"> F  </i>
   <v name="MAGPOS">      0.00000000      0.00000000      0.00000000</v>
   <i type="logical" name="LNICSALL"> T  </i>
   <i type="logical" name="ORBITALMAG"> F  </i>
   <i type="logical" name="LMAGBLOCH"> F  </i>
   <i type="logical" name="LCHIMAG"> F  </i>
   <i type="logical" name="LGAUGE"> T  </i>
   <i type="int" name="MAGATOM">     0</i>
   <v name="MAGDIPOL">      0.00000000      0.00000000      0.00000000</v>
   <v name="AVECCONST">      0.00000000      0.00000000      0.00000000</v>
  </separator>
  <separator name="response functions" >
   <i type="logical" name="LADDER"> F  </i>
   <i type="logical" name="LRPAFORCE"> F  </i>
   <i type="logical" name="LFXC"> F  </i>
   <i type="logical" name="LHARTREE"> T  </i>
   <i type="int" name="IBSE">     0</i>
   <v type="int" name="KPOINT">    -1     0     0     0</v>
   <i type="logical" name="LTCTE"> F  </i>
   <i type="logical" name="LTETE"> F  </i>
   <i type="logical" name="LTRIPLET"> F  </i>
   <i type="logical" name="LFXCEPS"> F  </i>
   <i type="logical" name="LFXHEG"> F  </i>
   <i type="int" name="NATURALO">     2</i>
   <i type="logical" name="L2ORDER"> F  </i>
   <i type="logical" name="LMP2LT"> F  </i>
   <i type="logical" name="LUSEW"> F  </i>
   <i name="ENCUTGW">     -2.00000000</i>
   <i name="ENCUTGWSOFT">     -2.00000000</i>
   <i name="ENCUTLF">     -1.00000000</i>
   <i type="int" name="LMAXMP2">    -1</i>
   <i name="SCISSOR">      0.00000000</i>
   <i type="int" name="NOMEGA">     0</i>
   <i type="int" name="NOMEGAR">     0</i>
   <i type="int" name="NBANDSGW">    -1</i>
   <i type="int" name="NBANDSO">    -1</i>
   <i type="int" name="NBANDSV">    -1</i>
   <i type="int" name="NELM">     1</i>
   <i type="int" name="NELMHF">     1</i>
   <i type="int" name="DIM">     3</i>
   <i type="int" name="ANTIRES">     0</i>
   <i name="OMEGAMAX">    -30.00000000</i>
   <i name="OMEGAMIN">    -30.00000000</i>
   <i name="OMEGATL">   -200.00000000</i>
   <i type="int" name="OMEGAGRID">   140</i>
   <i name="CSHIFT">     -0.10000000</i>
   <i type="logical" name="SELFENERGY"> F  </i>
   <i type="logical" name="LSPECTRAL"> F  </i>
   <i type="logical" name="LSPECTRALGW"> F  </i>
   <i type="logical" name="LSINGLES"> F  </i>
   <i type="logical" name="LFERMIGW"> F  </i>
   <i type="logical" name="ODDONLYGW"> F  </i>
   <i type="logical" name="EVENONLYGW"> F  </i>
   <i type="int" name="NKREDLFX">     1</i>
   <i type="int" name="NKREDLFY">     1</i>
   <i type="int" name="NKREDLFZ">     1</i>
   <i type="int" name="MAXMEM">  2800</i>
   <i type="int" name="TELESCOPE">     0</i>
   <i type="int" name="TAUPAR">     1</i>
   <i type="int" name="OMEGAPAR">    -1</i>
   <i name="LAMBDA">      1.00000000</i>
  </separator>
  <separator name="External order field" >
   <i name="OFIELD_KAPPA">      0.00000000</i>
   <v name="OFIELD_K">      0.00000000      0.00000000      0.00000000</v>
   <i name="OFIELD_Q6_NEAR">      0.00000000</i>
   <i name="OFIELD_Q6_FAR">      0.00000000</i>
   <i name="OFIELD_A">      0.00000000</i>
  </separator>
 </parameters>
 <atominfo>
  <atoms>       2 </atoms>
  <types>       1 </types>
  <array name="atoms" >
   <dimension dim="1">ion</dimension>
   <field type="string">element</field>
   <field type="int">atomtype</field>
   <set>
    <rc><c>Si</c><c>   1</c></rc>
    <rc><c>Si</c><c>   1</c></rc>
   </set>
  </array>
  <array name="atomtypes" >
   <dimension dim="1">type</dimension>
   <field type="int">atomspertype</field>
   <field type="string">element</field>
   <field>mass</field>
   <field>valence</field>
   <field type="string">pseudopotential</field>
   <set>
    <rc><c>   2</c><c>Si</c><c>     28.08500000</c><c>      4.00000000</c><c> PAW_PBE Si 05Jan2001                   </c></rc>
   </set>
  </array>
 </atominfo>
 <structure name="initialpos" >
  <crystal>
   <varray name="basis" >
    <v>       0.00000000       2.71500000       2.71500000 </v>
    <v>       2.71500000       0.00000000       2.71500000 </v>
    <v>       2.71500000       2.71500000       0.00000000 </v>
   </varray>
   <i name="volume">     40.02575175 </i>
   <varray name="rec_basis" >
    <v>      -0.18416206       0.18416206       0.18416206 </v>
    <v>       0.18416206      -0.18416206       0.18416206 </v>
    <v>       0.18416206       0.18416206      -0.18416206 </v>
   </varray>
  </crystal>
  <varray name="positions" >
   <v>       0.50000000       0.50000000       0.50000000 </v>
   <v>       0.75000000       0.75000000       0.75000000 </v>
  </varray>
 </structure>
 <calculation>
  <scstep>
   <time name="dav">    0.16    0.17</time>
   <time name="total">    0.20    0.23</time>
   <energy>
    <i name="alphaZ">      3.36414203 </i>
    <i name="ewald">   -228.56352493 </i>
    <i name="hartreedc">    -11.00108243 </i>
    <i name="XCdc">    -18.60155909 </i>
    <i name="pawpsdc">     65.95520812 </i>
    <i name="pawaedc">    -30.76852678 </i>
    <i name="eentropy">     -0.00840438 </i>
    <i name="bandstr">      9.29721647 </i>
    <i name="atom">    206.09183643 </i>
    <i name="e_fr_energy">     -4.23469457 </i>
    <i name="e_wo_entrp">     -4.22629018 </i>
    <i name="e_0_energy">     -4.23049237 </i>
   </energy>
  </scstep>
  <scstep>
   <time name="dav">    0.25    0.26</time>
   <time name="total">    0.25    0.26</time>
   <energy>
    <i name="e_fr_energy">    -10.86864617 </i>
    <i name="e_wo_entrp">    -10.86862652 </i>
    <i name="e_0_energy">    -10.86863635 </i>
   </energy>
  </scstep>
  <scstep>
   <time name="dav">    0.16    0.17</time>
   <time name="total">    0.17    0.17</time>
   <energy>
    <i name="e_fr_energy">    -10.91700015 </i>
    <i name="e_wo_entrp">    -10.91698414 </i>
    <i name="e_0_energy">    -10.91699214 </i>
   </energy>
  </scstep>
  <scstep>
   <time name="dav">    0.27    0.28</time>
   <time name="total">    0.28    0.29</time>
   <energy>
    <i name="e_fr_energy">    -10.91709694 </i>
    <i name="e_wo_entrp">    -10.91708093 </i>
    <i name="e_0_energy">    -10.91708893 </i>
   </energy>
  </scstep>
  <scstep>
   <time name="dav">    0.16    0.17</time>
   <time name="total">    0.17    0.18</time>
   <energy>
    <i name="e_fr_energy">    -10.91709694 </i>
    <i name="e_wo_entrp">    -10.91708094 </i>
    <i name="e_0_energy">    -10.91708894 </i>
   </energy>
  </scstep>
  <scstep>
   <time name="dav">    0.18    0.18</time>
   <time name="total">    0.21    0.22</time>
   <energy>
    <i name="e_fr_energy">    -10.79211488 </i>
    <i name="e_wo_entrp">    -10.79204206 </i>
    <i name="e_0_energy">    -10.79207847 </i>
   </energy>
  </scstep>
  <scstep>
   <time name="dav">    0.18    0.18</time>
   <time name="total">    0.21    0.22</time>
   <energy>
    <i name="e_fr_energy">    -10.73337694 </i>
    <i name="e_wo_entrp">    -10.73302498 </i>
    <i name="e_0_energy">    -10.73320096 </i>
   </energy>
  </scstep>
  <scstep>
   <time name="dav">    0.17    0.17</time>
   <time name="total">    0.20    0.21</time>
   <energy>
    <i name="e_fr_energy">    -10.73464288 </i>
    <i name="e_wo_entrp">    -10.73434876 </i>
    <i name="e_0_energy">    -10.73449582 </i>
   </energy>
  </scstep>
  <scstep>
   <time name="dav">    0.10    0.10</time>
   <time name="total">    0.12    0.13</time>
   <energy>
    <i name="alphaZ">      3.36414203 </i>
    <i name="ewald">   -228.56352493 </i>
    <i name="hartreedc">    -14.89986104 </i>
    <i name="XCdc">    -17.92047253 </i>
    <i name="pawpsdc">     76.71614422 </i>
    <i name="pawaedc">    -41.76800452 </i>
    <i name="eentropy">     -0.00029306 </i>
    <i name="bandstr">      6.24530040 </i>
    <i name="atom">    206.09183643 </i>
    <i name="e_fr_energy">    -10.73473301 </i>
    <i name="e_wo_entrp">    -10.73443996 </i>
    <i name="e_0_energy">    -10.73458648 </i>
   </energy>
  </scstep>
  <structure>
   <crystal>
    <varray name="basis" >
     <v>       0.00000000       2.71500000       2.71500000 </v>
     <v>       2.71500000       0.00000000       2.71500000 </v>
     <v>       2.71500000       2.71500000       0.00000000 </v>
    </varray>
    <i name="volume">     40.02575175 </i>
    <varray name="rec_basis" >
     <v>      -0.18416206       0.18416206       0.18416206 </v>
     <v>       0.18416206      -0.18416206       0.18416206 </v>
     <v>       0.18416206       0.18416206      -0.18416206 </v>
    </varray>
   </crystal>
   <varray name="positions" >
    <v>       0.50000000       0.50000000       0.50000000 </v>
    <v>       0.75000000       0.75000000       0.75000000 </v>
   </varray>
  </structure>
  <varray name="forces" >
   <v>      -0.00000000      -0.00000000      -0.00000000 </v>
   <v>       0.00000000       0.00000000       0.00000000 </v>
  </varray>
  <varray name="stress" >
   <v>      19.80281983      -0.00000000       0.00000000 </v>
   <v>      -0.00000000      19.80281983       0.00000000 </v>
   <v>       0.00000000       0.00000000      19.80281983 </v>
  </varray>
  <energy>
   <i name="e_fr_energy">    -10.73473301 </i>
   <i name="e_wo_entrp">    -10.73458648 </i>
   <i name="e_0_energy">     -0.00029306 </i>
  </energy>
  <time name="totalsc">    2.26    2.65</time>
 </calculation>
 <calculation>
  <scstep>
   <time name="dav">    0.16    0.16</time>
   <time name="total">    0.19    0.20</time>
   <energy>
    <i name="alphaZ">      3.24652521 </i>
    <i name="ewald">   -225.86819318 </i>
    <i name="hartreedc">    -14.73540941 </i>
    <i name="XCdc">    -18.09477752 </i>
    <i name="pawpsdc">     76.71157225 </i>
    <i name="pawaedc">    -41.76435749 </i>
    <i name="eentropy">     -0.00010865 </i>
    <i name="bandstr">      3.66869340 </i>
    <i name="atom">    206.09183643 </i>
    <i name="e_fr_energy">    -10.74421897 </i>
    <i name="e_wo_entrp">    -10.74411032 </i>
    <i name="e_0_energy">    -10.74416464 </i>
   </energy>
  </scstep>
  <scstep>
   <time name="dav">    0.17    0.17</time>
   <time name="total">    0.20    0.22</time>
   <energy>
    <i name="e_fr_energy">    -10.73967690 </i>
    <i name="e_wo_entrp">    -10.73954103 </i>
    <i name="e_0_energy">    -10.73960896 </i>
   </energy>
  </scstep>
  <scstep>
   <time name="dav">    0.17    0.17</time>
   <time name="total">    0.20    0.21</time>
   <energy>
    <i name="e_fr_energy">    -10.73727319 </i>
    <i name="e_wo_entrp">    -10.73709450 </i>
    <i name="e_0_energy">    -10.73718384 </i>
   </energy>
  </scstep>
  <scstep>
   <time name="dav">    0.10    0.10</time>
   <time name="total">    0.12    0.13</time>
   <energy>
    <i name="alphaZ">      3.24652521 </i>
    <i name="ewald">   -225.86819318 </i>
    <i name="hartreedc">    -15.32943269 </i>
    <i name="XCdc">    -18.08250175 </i>
    <i name="pawpsdc">     75.54287848 </i>
    <i name="pawaedc">    -40.56427241 </i>
    <i name="eentropy">     -0.00017591 </i>
    <i name="bandstr">      4.22607589 </i>
    <i name="atom">    206.09183643 </i>
    <i name="e_fr_energy">    -10.73725992 </i>
    <i name="e_wo_entrp">    -10.73708401 </i>
    <i name="e_0_energy">    -10.73717196 </i>
   </energy>
  </scstep>
  <structure>
   <crystal>
    <varray name="basis" >
     <v>      -0.00000000       2.74739866       2.74739866 </v>
     <v>       2.74739866      -0.00000000       2.74739866 </v>
     <v>       2.74739866       2.74739866       0.00000000 </v>
    </varray>
    <i name="volume">     41.47582559 </i>
    <varray name="rec_basis" >
     <v>      -0.18199033       0.18199033       0.18199033 </v>
     <v>       0.18199033      -0.18199033       0.18199033 </v>
     <v>       0.18199033       0.18199033      -0.18199033 </v>
    </varray>
   </crystal>
   <varray name="positions" >
    <v>       0.50000000       0.50000000       0.50000000 </v>
    <v>       0.75000000       0.75000000       0.75000000 </v>
   </varray>
  </structure>
  <varray name="forces" >
   <v>       0.00000000      -0.00000000       0.00000000 </v>
   <v>      -0.00000000       0.00000000      -0.00000000 </v>
  </varray>
  <varray name="stress" >
   <v>     -12.81055677       0.00000000       0.00000000 </v>
   <v>      -0.00000000     -12.81055677      -0.00000000 </v>
   <v>       0.00000000       0.00000000     -12.81055677 </v>
  </varray>
  <energy>
   <i name="e_fr_energy">    -10.73725992 </i>
   <i name="e_wo_entrp">    -10.73717196 </i>
   <i name="e_0_energy">     -0.00017591 </i>
  </energy>
  <time name="totalsc">    0.88    1.01</time>
 </calculation>
 <calculation>
  <scstep>
   <time name="dav">    0.16    0.16</time>
   <time name="total">    0.19    0.20</time>
   <energy>
    <i name="alphaZ">      3.29305811 </i>
    <i name="ewald">   -226.94221143 </i>
    <i name="hartreedc">    -15.40518612 </i>
    <i name="XCdc">    -18.01421628 </i>
    <i name="pawpsdc">     75.49388977 </i>
    <i name="pawaedc">    -40.51346450 </i>
    <i name="eentropy">     -0.00025632 </i>
    <i name="bandstr">      5.25566995 </i>
    <i name="atom">    206.09183643 </i>
    <i name="e_fr_energy">    -10.74088040 </i>
    <i name="e_wo_entrp">    -10.74062408 </i>
    <i name="e_0_energy">    -10.74075224 </i>
   </energy>
  </scstep>
  <scstep>
   <time name="dav">    0.17    0.17</time>
   <time name="total">    0.20    0.21</time>
   <energy>
    <i name="e_fr_energy">    -10.74014055 </i>
    <i name="e_wo_entrp">    -10.73990393 </i>
    <i name="e_0_energy">    -10.74002224 </i>
   </energy>
  </scstep>
  <scstep>
   <time name="dav">    0.12    0.12</time>
   <time name="total">    0.14    0.16</time>
   <energy>
    <i name="alphaZ">      3.29305811 </i>
    <i name="ewald">   -226.94221143 </i>
    <i name="hartreedc">    -15.16104458 </i>
    <i name="XCdc">    -18.02015453 </i>
    <i name="pawpsdc">     75.88847823 </i>
    <i name="pawaedc">    -40.91791349 </i>
    <i name="eentropy">     -0.00021319 </i>
    <i name="bandstr">      5.02840566 </i>
    <i name="atom">    206.09183643 </i>
    <i name="e_fr_energy">    -10.73975880 </i>
    <i name="e_wo_entrp">    -10.73954561 </i>
    <i name="e_0_energy">    -10.73965220 </i>
   </energy>
  </scstep>
  <structure>
   <crystal>
    <varray name="basis" >
     <v>      -0.00000000       2.73439642       2.73439642 </v>
     <v>       2.73439642      -0.00000000       2.73439642 </v>
     <v>       2.73439642       2.73439642       0.00000000 </v>
    </varray>
    <i name="volume">     40.88974718 </i>
    <varray name="rec_basis" >
     <v>      -0.18285571       0.18285571       0.18285571 </v>
     <v>       0.18285571      -0.18285571       0.18285571 </v>
     <v>       0.18285571       0.18285571      -0.18285571 </v>
    </varray>
   </crystal>
   <varray name="positions" >
    <v>       0.50000000       0.50000000       0.50000000 </v>
    <v>       0.75000000       0.75000000       0.75000000 </v>
   </varray>
  </structure>
  <varray name="forces" >
   <v>      -0.00000000       0.00000000       0.00000000 </v>
   <v>       0.00000000      -0.00000000      -0.00000000 </v>
  </varray>
  <varray name="stress" >
   <v>      -0.58194320       0.00000000      -0.00000000 </v>
   <v>       0.00000000      -0.58194320       0.00000000 </v>
   <v>      -0.00000000       0.00000000      -0.58194320 </v>
  </varray>
  <energy>
   <i name="e_fr_energy">    -10.73975880 </i>
   <i name="e_wo_entrp">    -10.73965220 </i>
   <i name="e_0_energy">     -0.00021319 </i>
  </energy>
  <time name="totalsc">    0.72    0.91</time>
  <eigenvalues>
   <array>
    <dimension dim="1">band</dimension>
    <dimension dim="2">kpoint</dimension>
    <dimension dim="3">spin</dimension>
    <field>eigene</field>
    <field>occ</field>
    <set>
     <set comment="spin 1">
      <set comment="kpoint 1">
       <r>   -6.2011    1.0000 </r>
       <r>    5.6650    0.9835 </r>
       <r>    5.6650    0.9835 </r>
       <r>    5.6653    0.9835 </r>
       <r>    8.2332    0.0000 </r>
       <r>    8.2332    0.0000 </r>
       <r>    8.2334    0.0000 </r>
       <r>    8.7422    0.0000 </r>
      </set>
      <set comment="kpoint 2">
       <r>   -5.9394    1.0000 </r>
       <r>    3.7240    1.0000 </r>
       <r>    5.3086    1.0000 </r>
       <r>    5.3089    1.0000 </r>
       <r>    8.0419    0.0000 </r>
       <r>    8.7524    0.0000 </r>
       <r>    8.7527    0.0000 </r>
       <r>   10.4929    0.0000 </r>
      </set>
      <set comment="kpoint 3">
       <r>   -5.1861    1.0000 </r>
       <r>    1.1270    1.0000 </r>
       <r>    4.7898    1.0000 </r>
       <r>    4.7900    1.0000 </r>
       <r>    7.5098    0.0000 </r>
       <r>    9.2338    0.0000 </r>
       <r>    9.2342    0.0000 </r>
       <r>   12.9690    0.0000 </r>
      </set>
      <set comment="kpoint 4">
       <r>   -4.1671    1.0000 </r>
       <r>   -0.8768    1.0000 </r>
       <r>    4.4998    1.0000 </r>
       <r>    4.5000    1.0000 </r>
       <r>    7.1679    0.0000 </r>
       <r>    9.1188    0.0000 </r>
       <r>    9.1192    0.0000 </r>
       <r>   13.4266    0.0000 </r>
      </set>
      <set comment="kpoint 5">
       <r>   -5.8509    1.0000 </r>
       <r>    3.9979    1.0000 </r>
       <r>    4.7018    1.0000 </r>
       <r>    4.7020    1.0000 </r>
       <r>    7.5650    0.0000 </r>
       <r>    9.6357    0.0000 </r>
       <r>    9.6359    0.0000 </r>
       <r>    9.9416    0.0000 </r>
      </set>
      <set comment="kpoint 6">
       <r>   -5.2539    1.0000 </r>
       <r>    1.9005    1.0000 </r>
       <r>    4.1131    1.0000 </r>
       <r>    4.1592    1.0000 </r>
       <r>    7.7633    0.0000 </r>
       <r>    9.5030    0.0000 </r>
       <r>   10.3231    0.0000 </r>
       <r>   10.4333    0.0000 </r>
      </set>
      <set comment="kpoint 7">
       <r>   -4.2637    1.0000 </r>
       <r>   -0.2542    1.0000 </r>
       <r>    3.4302    1.0000 </r>
       <r>    3.9662    1.0000 </r>
       <r>    7.8229    0.0000 </r>
       <r>    9.4739    0.0000 </r>
       <r>   10.2502    0.0000 </r>
       <r>   11.4942    0.0000 </r>
      </set>
      <set comment="kpoint 8">
       <r>   -3.7184    1.0000 </r>
       <r>   -1.1025    1.0000 </r>
       <r>    3.0182    1.0000 </r>
       <r>    4.1624    1.0000 </r>
       <r>    7.9017    0.0000 </r>
       <r>    9.4092    0.0000 </r>
       <r>    9.8665    0.0000 </r>
       <r>   13.7985    0.0000 </r>
      </set>
      <set comment="kpoint 9">
       <r>   -4.6253    1.0000 </r>
       <r>    0.4154    1.0000 </r>
       <r>    3.0296    1.0000 </r>
       <r>    4.6700    1.0000 </r>
       <r>    8.2857    0.0000 </r>
       <r>    9.5986    0.0000 </r>
       <r>    9.6245    0.0000 </r>
       <r>   12.2682    0.0000 </r>
      </set>
      <set comment="kpoint 10">
       <r>   -5.5104    1.0000 </r>
       <r>    2.5150    1.0000 </r>
       <r>    3.7209    1.0000 </r>
       <r>    5.2647    1.0000 </r>
       <r>    8.6634    0.0000 </r>
       <r>    8.9673    0.0000 </r>
       <r>    9.2339    0.0000 </r>
       <r>   11.2292    0.0000 </r>
      </set>
      <set comment="kpoint 11">
       <r>   -4.8167    1.0000 </r>
       <r>    1.4796    1.0000 </r>
       <r>    3.5398    1.0000 </r>
       <r>    3.5400    1.0000 </r>
       <r>    6.6379    0.0000 </r>
       <r>    8.3510    0.0000 </r>
       <r>   12.0520    0.0000 </r>
       <r>   12.0523    0.0000 </r>
      </set>
      <set comment="kpoint 12">
       <r>   -3.9295    1.0000 </r>
       <r>   -0.0035    1.0000 </r>
       <r>    2.5788    1.0000 </r>
       <r>    3.2800    1.0000 </r>
       <r>    6.9298    0.0000 </r>
       <r>    8.4113    0.0000 </r>
       <r>   12.2430    0.0000 </r>
       <r>   12.4726    0.0000 </r>
      </set>
      <set comment="kpoint 13">
       <r>   -3.0317    1.0000 </r>
       <r>   -1.1611    1.0000 </r>
       <r>    1.6424    1.0000 </r>
       <r>    3.4442    1.0000 </r>
       <r>    7.1715    0.0000 </r>
       <r>   10.6625    0.0000 </r>
       <r>   11.9555    0.0000 </r>
       <r>   11.9792    0.0000 </r>
      </set>
      <set comment="kpoint 14">
       <r>   -3.6692    1.0000 </r>
       <r>   -0.4231    1.0000 </r>
       <r>    1.5726    1.0000 </r>
       <r>    3.9898    1.0000 </r>
       <r>    7.7675    0.0000 </r>
       <r>   11.1213    0.0000 </r>
       <r>   11.5147    0.0000 </r>
       <r>   12.1687    0.0000 </r>
      </set>
      <set comment="kpoint 15">
       <r>   -3.1558    1.0000 </r>
       <r>   -0.9897    1.0000 </r>
       <r>    2.9114    1.0000 </r>
       <r>    2.9115    1.0000 </r>
       <r>    6.3058    0.0082 </r>
       <r>    6.8185    0.0000 </r>
       <r>   14.7028    0.0000 </r>
       <r>   14.7030    0.0000 </r>
      </set>
      <set comment="kpoint 16">
       <r>   -2.2245    1.0000 </r>
       <r>   -1.9352    1.0000 </r>
       <r>    2.0427    1.0000 </r>
       <r>    2.9707    1.0000 </r>
       <r>    6.6043    0.0000 </r>
       <r>    7.8448    0.0000 </r>
       <r>   14.4317    0.0000 </r>
       <r>   14.7911    0.0000 </r>
      </set>
      <set comment="kpoint 17">
       <r>   -4.5139    1.0000 </r>
       <r>    0.7584    1.0000 </r>
       <r>    2.5852    1.0000 </r>
       <r>    3.8868    1.0000 </r>
       <r>    8.2729    0.0000 </r>
       <r>    9.5199    0.0000 </r>
       <r>    9.8315    0.0000 </r>
       <r>   11.8101    0.0000 </r>
      </set>
      <set comment="kpoint 18">
       <r>   -3.4921    1.0000 </r>
       <r>   -0.7500    1.0000 </r>
       <r>    2.0145    1.0000 </r>
       <r>    3.3593    1.0000 </r>
       <r>    8.7625    0.0000 </r>
       <r>    9.1687    0.0000 </r>
       <r>   11.1438    0.0000 </r>
       <r>   12.2811    0.0000 </r>
      </set>
      <set comment="kpoint 19">
       <r>   -2.9573    1.0000 </r>
       <r>   -1.0779    1.0000 </r>
       <r>    2.1080    1.0000 </r>
       <r>    2.5138    1.0000 </r>
       <r>    7.9136    0.0000 </r>
       <r>    8.2855    0.0000 </r>
       <r>   11.8116    0.0000 </r>
       <r>   14.2692    0.0000 </r>
      </set>
      <set comment="kpoint 20">
       <r>   -2.5314    1.0000 </r>
       <r>   -1.4688    1.0000 </r>
       <r>    1.4849    1.0000 </r>
       <r>    2.6043    1.0000 </r>
       <r>    8.4419    0.0000 </r>
       <r>   10.5653    0.0000 </r>
       <r>   11.2799    0.0000 </r>
       <r>   11.4513    0.0000 </r>
      </set>
     </set>
    </set>
   </array>
  </eigenvalues>
  <separator name="orbital magnetization" >
   <v name="MAGDIPOLOUT">      0.00000000      0.00000000      0.00000000</v>
  </separator>
  <dos>
   <i name="efermi">      5.96663186 </i>
   <total>
    <array>
     <dimension dim="1">gridpoints</dimension>
     <dimension dim="2">spin</dimension>
     <field>energy</field>
     <field>total</field>
     <field>integrated</field>
     <set>
      <set comment="spin 1">
       <r>    -8.2011     0.0000     0.0000 </r>
       <r>    -8.1178     0.0000     0.0000 </r>
       <r>    -8.0345     0.0000     0.0000 </r>
       <r>    -7.9512     0.0000     0.0000 </r>
       <r>    -7.8679     0.0000     0.0000 </r>
       <r>    -7.7846     0.0000     0.0000 </r>
       <r>    -7.7013     0.0000     0.0000 </r>
       <r>    -7.6180     0.0000     0.0000 </r>
       <r>    -7.5347     0.0000     0.0000 </r>
       <r>    -7.4514     0.0000     0.0000 </r>
       <r>    -7.3680     0.0000     0.0000 </r>
       <r>    -7.2847     0.0000     0.0000 </r>
       <r>    -7.2014     0.0000     0.0000 </r>
       <r>    -7.1181     0.0000     0.0000 </r>
       <r>    -7.0348     0.0000     0.0000 </r>
       <r>    -6.9515     0.0000     0.0000 </r>
       <r>    -6.8682     0.0000     0.0000 </r>
       <r>    -6.7849     0.0000     0.0000 </r>
       <r>    -6.7016     0.0000     0.0000 </r>
       <r>    -6.6183     0.0001     0.0000 </r>
       <r>    -6.5350     0.0005     0.0001 </r>
       <r>    -6.4517     0.0021     0.0002 </r>
       <r>    -6.3684     0.0063     0.0008 </r>
       <r>    -6.2851     0.0148     0.0020 </r>
       <r>    -6.2017     0.0316     0.0046 </r>
       <r>    -6.1184     0.0649     0.0100 </r>
       <r>    -6.0351     0.1214     0.0201 </r>
       <r>    -5.9518     0.1865     0.0357 </r>
       <r>    -5.8685     0.2224     0.0542 </r>
       <r>    -5.7852     0.2090     0.0716 </r>
       <r>    -5.7019     0.1779     0.0864 </r>
       <r>    -5.6186     0.1801     0.1014 </r>
       <r>    -5.5353     0.2298     0.1206 </r>
       <r>    -5.4520     0.3081     0.1463 </r>
       <r>    -5.3687     0.4067     0.1801 </r>
       <r>    -5.2854     0.5082     0.2225 </r>
       <r>    -5.2021     0.5436     0.2678 </r>
       <r>    -5.1187     0.4581     0.3059 </r>
       <r>    -5.0354     0.3029     0.3312 </r>
       <r>    -4.9521     0.1895     0.3469 </r>
       <r>    -4.8688     0.1837     0.3623 </r>
       <r>    -4.7855     0.2880     0.3863 </r>
       <r>    -4.7022     0.4731     0.4257 </r>
       <r>    -4.6189     0.6713     0.4816 </r>
       <r>    -4.5356     0.7830     0.5468 </r>
       <r>    -4.4523     0.7662     0.6107 </r>
       <r>    -4.3690     0.6915     0.6683 </r>
       <r>    -4.2857     0.6429     0.7218 </r>
       <r>    -4.2024     0.6112     0.7727 </r>
       <r>    -4.1191     0.5613     0.8195 </r>
       <r>    -4.0358     0.5276     0.8634 </r>
       <r>    -3.9524     0.5595     0.9101 </r>
       <r>    -3.8691     0.6476     0.9640 </r>
       <r>    -3.7858     0.7619     1.0275 </r>
       <r>    -3.7025     0.8902     1.1016 </r>
       <r>    -3.6192     1.0111     1.1859 </r>
       <r>    -3.5359     1.0717     1.2752 </r>
       <r>    -3.4526     0.9980     1.3583 </r>
       <r>    -3.3693     0.7758     1.4229 </r>
       <r>    -3.2860     0.5321     1.4673 </r>
       <r>    -3.2027     0.4420     1.5041 </r>
       <r>    -3.1194     0.5533     1.5502 </r>
       <r>    -3.0361     0.7395     1.6118 </r>
       <r>    -2.9528     0.8082     1.6791 </r>
       <r>    -2.8695     0.6774     1.7355 </r>
       <r>    -2.7861     0.4539     1.7733 </r>
       <r>    -2.7028     0.3130     1.7994 </r>
       <r>    -2.6195     0.3207     1.8261 </r>
       <r>    -2.5362     0.3930     1.8589 </r>
       <r>    -2.4529     0.4122     1.8932 </r>
       <r>    -2.3696     0.3586     1.9231 </r>
       <r>    -2.2863     0.2971     1.9478 </r>
       <r>    -2.2030     0.2645     1.9699 </r>
       <r>    -2.1197     0.2467     1.9904 </r>
       <r>    -2.0364     0.2368     2.0101 </r>
       <r>    -1.9531     0.2333     2.0296 </r>
       <r>    -1.8698     0.2133     2.0473 </r>
       <r>    -1.7865     0.1685     2.0614 </r>
       <r>    -1.7031     0.1427     2.0733 </r>
       <r>    -1.6198     0.1908     2.0892 </r>
       <r>    -1.5365     0.3080     2.1148 </r>
       <r>    -1.4532     0.4256     2.1503 </r>
       <r>    -1.3699     0.5100     2.1928 </r>
       <r>    -1.2866     0.6431     2.2463 </r>
       <r>    -1.2033     0.9053     2.3218 </r>
       <r>    -1.1200     1.1923     2.4211 </r>
       <r>    -1.0367     1.2973     2.5292 </r>
       <r>    -0.9534     1.1948     2.6287 </r>
       <r>    -0.8701     1.0686     2.7177 </r>
       <r>    -0.7868     1.0232     2.8030 </r>
       <r>    -0.7035     0.9522     2.8823 </r>
       <r>    -0.6202     0.7595     2.9456 </r>
       <r>    -0.5368     0.5376     2.9903 </r>
       <r>    -0.4535     0.4325     3.0264 </r>
       <r>    -0.3702     0.4625     3.0649 </r>
       <r>    -0.2869     0.5371     3.1096 </r>
       <r>    -0.2036     0.5743     3.1575 </r>
       <r>    -0.1203     0.5654     3.2046 </r>
       <r>    -0.0370     0.5353     3.2492 </r>
       <r>     0.0463     0.4737     3.2887 </r>
       <r>     0.1296     0.3693     3.3194 </r>
       <r>     0.2129     0.2817     3.3429 </r>
       <r>     0.2962     0.2863     3.3667 </r>
       <r>     0.3795     0.3646     3.3971 </r>
       <r>     0.4628     0.4183     3.4320 </r>
       <r>     0.5462     0.4030     3.4655 </r>
       <r>     0.6295     0.3812     3.4973 </r>
       <r>     0.7128     0.4038     3.5309 </r>
       <r>     0.7961     0.4173     3.5657 </r>
       <r>     0.8794     0.3560     3.5953 </r>
       <r>     0.9627     0.2519     3.6163 </r>
       <r>     1.0460     0.1815     3.6315 </r>
       <r>     1.1293     0.1645     3.6452 </r>
       <r>     1.2126     0.1807     3.6602 </r>
       <r>     1.2959     0.2504     3.6811 </r>
       <r>     1.3792     0.4254     3.7165 </r>
       <r>     1.4625     0.6888     3.7739 </r>
       <r>     1.5458     0.9141     3.8500 </r>
       <r>     1.6291     0.9776     3.9315 </r>
       <r>     1.7125     0.9063     4.0070 </r>
       <r>     1.7958     0.8827     4.0805 </r>
       <r>     1.8791     1.0655     4.1693 </r>
       <r>     1.9624     1.3898     4.2851 </r>
       <r>     2.0457     1.5834     4.4170 </r>
       <r>     2.1290     1.4345     4.5365 </r>
       <r>     2.2123     1.0315     4.6224 </r>
       <r>     2.2956     0.6992     4.6807 </r>
       <r>     2.3789     0.7214     4.7408 </r>
       <r>     2.4622     1.1143     4.8336 </r>
       <r>     2.5455     1.5753     4.9648 </r>
       <r>     2.6288     1.7069     5.1070 </r>
       <r>     2.7121     1.4229     5.2255 </r>
       <r>     2.7955     1.0525     5.3132 </r>
       <r>     2.8788     0.9453     5.3920 </r>
       <r>     2.9621     1.0954     5.4832 </r>
       <r>     3.0454     1.2432     5.5868 </r>
       <r>     3.1287     1.2683     5.6925 </r>
       <r>     3.2120     1.3377     5.8039 </r>
       <r>     3.2953     1.6031     5.9375 </r>
       <r>     3.3786     1.9005     6.0958 </r>
       <r>     3.4619     1.9187     6.2556 </r>
       <r>     3.5452     1.5911     6.3882 </r>
       <r>     3.6285     1.1668     6.4854 </r>
       <r>     3.7118     0.9249     6.5624 </r>
       <r>     3.7951     0.9551     6.6420 </r>
       <r>     3.8784     1.1870     6.7409 </r>
       <r>     3.9618     1.4875     6.8648 </r>
       <r>     4.0451     1.7133     7.0075 </r>
       <r>     4.1284     1.7370     7.1522 </r>
       <r>     4.2117     1.4914     7.2765 </r>
       <r>     4.2950     1.0638     7.3651 </r>
       <r>     4.3783     0.6874     7.4224 </r>
       <r>     4.4616     0.5431     7.4676 </r>
       <r>     4.5449     0.6228     7.5195 </r>
       <r>     4.6282     0.7919     7.5855 </r>
       <r>     4.7115     0.8921     7.6598 </r>
       <r>     4.7948     0.8178     7.7279 </r>
       <r>     4.8781     0.5899     7.7771 </r>
       <r>     4.9614     0.3401     7.8054 </r>
       <r>     5.0447     0.1980     7.8219 </r>
       <r>     5.1281     0.2098     7.8394 </r>
       <r>     5.2114     0.3282     7.8667 </r>
       <r>     5.2947     0.4369     7.9031 </r>
       <r>     5.3780     0.4302     7.9389 </r>
       <r>     5.4613     0.3124     7.9650 </r>
       <r>     5.5446     0.1785     7.9798 </r>
       <r>     5.6279     0.0976     7.9880 </r>
       <r>     5.7112     0.0632     7.9932 </r>
       <r>     5.7945     0.0431     7.9968 </r>
       <r>     5.8778     0.0247     7.9989 </r>
       <r>     5.9611     0.0127     7.9999 </r>
       <r>     6.0444     0.0135     8.0011 </r>
       <r>     6.1277     0.0311     8.0037 </r>
       <r>     6.2111     0.0645     8.0090 </r>
       <r>     6.2944     0.1032     8.0176 </r>
       <r>     6.3777     0.1400     8.0293 </r>
       <r>     6.4610     0.1891     8.0450 </r>
       <r>     6.5443     0.2649     8.0671 </r>
       <r>     6.6276     0.3468     8.0960 </r>
       <r>     6.7109     0.4071     8.1299 </r>
       <r>     6.7942     0.4619     8.1684 </r>
       <r>     6.8775     0.5353     8.2130 </r>
       <r>     6.9608     0.6076     8.2636 </r>
       <r>     7.0441     0.6544     8.3181 </r>
       <r>     7.1274     0.6717     8.3741 </r>
       <r>     7.2107     0.6307     8.4266 </r>
       <r>     7.2940     0.5093     8.4691 </r>
       <r>     7.3774     0.3727     8.5001 </r>
       <r>     7.4607     0.3254     8.5272 </r>
       <r>     7.5440     0.4214     8.5623 </r>
       <r>     7.6273     0.6858     8.6195 </r>
       <r>     7.7106     1.1237     8.7131 </r>
       <r>     7.7939     1.6082     8.8470 </r>
       <r>     7.8772     1.8670     9.0026 </r>
       <r>     7.9605     1.7363     9.1472 </r>
       <r>     8.0438     1.3904     9.2631 </r>
       <r>     8.1271     1.2073     9.3636 </r>
       <r>     8.2104     1.3867     9.4792 </r>
       <r>     8.2937     1.7428     9.6243 </r>
       <r>     8.3770     1.9092     9.7834 </r>
       <r>     8.4604     1.7331     9.9278 </r>
       <r>     8.5437     1.4133    10.0455 </r>
       <r>     8.6270     1.2523    10.1498 </r>
       <r>     8.7103     1.3108    10.2590 </r>
       <r>     8.7936     1.3668    10.3729 </r>
       <r>     8.8769     1.2532    10.4773 </r>
       <r>     8.9602     1.1073    10.5695 </r>
       <r>     9.0435     1.1700    10.6670 </r>
       <r>     9.1268     1.4474    10.7876 </r>
       <r>     9.2101     1.7117    10.9302 </r>
       <r>     9.2934     1.8301    11.0826 </r>
       <r>     9.3767     1.9385    11.2441 </r>
       <r>     9.4600     2.1664    11.4246 </r>
       <r>     9.5433     2.3620    11.6214 </r>
       <r>     9.6267     2.2840    11.8117 </r>
       <r>     9.7100     1.9429    11.9735 </r>
       <r>     9.7933     1.5564    12.1032 </r>
       <r>     9.8766     1.2400    12.2065 </r>
       <r>     9.9599     0.9460    12.2853 </r>
       <r>    10.0432     0.6850    12.3424 </r>
       <r>    10.1265     0.5909    12.3916 </r>
       <r>    10.2098     0.7338    12.4527 </r>
       <r>    10.2931     1.0060    12.5365 </r>
       <r>    10.3764     1.2337    12.6393 </r>
       <r>    10.4597     1.3308    12.7502 </r>
       <r>    10.5430     1.3006    12.8585 </r>
       <r>    10.6263     1.1503    12.9543 </r>
       <r>    10.7097     0.8856    13.0281 </r>
       <r>    10.7930     0.5802    13.0765 </r>
       <r>    10.8763     0.3828    13.1083 </r>
       <r>    10.9596     0.4335    13.1445 </r>
       <r>    11.0429     0.7586    13.2077 </r>
       <r>    11.1262     1.2032    13.3079 </r>
       <r>    11.2095     1.5122    13.4339 </r>
       <r>    11.2928     1.5673    13.5644 </r>
       <r>    11.3761     1.4772    13.6875 </r>
       <r>    11.4594     1.3658    13.8013 </r>
       <r>    11.5427     1.2204    13.9029 </r>
       <r>    11.6260     1.0509    13.9905 </r>
       <r>    11.7093     1.0034    14.0741 </r>
       <r>    11.7926     1.1655    14.1712 </r>
       <r>    11.8760     1.4161    14.2892 </r>
       <r>    11.9593     1.5799    14.4208 </r>
       <r>    12.0426     1.6405    14.5574 </r>
       <r>    12.1259     1.7336    14.7018 </r>
       <r>    12.2092     1.9183    14.8617 </r>
       <r>    12.2925     2.0122    15.0293 </r>
       <r>    12.3758     1.7988    15.1791 </r>
       <r>    12.4591     1.3263    15.2896 </r>
       <r>    12.5424     0.8212    15.3580 </r>
       <r>    12.6257     0.4358    15.3943 </r>
       <r>    12.7090     0.2033    15.4113 </r>
       <r>    12.7923     0.1060    15.4201 </r>
       <r>    12.8756     0.1003    15.4285 </r>
       <r>    12.9589     0.1250    15.4389 </r>
       <r>    13.0423     0.1286    15.4496 </r>
       <r>    13.1256     0.1017    15.4581 </r>
       <r>    13.2089     0.0753    15.4643 </r>
       <r>    13.2922     0.0803    15.4710 </r>
       <r>    13.3755     0.1124    15.4804 </r>
       <r>    13.4588     0.1418    15.4922 </r>
       <r>    13.5421     0.1587    15.5054 </r>
       <r>    13.6254     0.1981    15.5219 </r>
       <r>    13.7087     0.2877    15.5459 </r>
       <r>    13.7920     0.3786    15.5774 </r>
       <r>    13.8753     0.3838    15.6094 </r>
       <r>    13.9586     0.2965    15.6341 </r>
       <r>    14.0419     0.2141    15.6520 </r>
       <r>    14.1253     0.2329    15.6714 </r>
       <r>    14.2086     0.3518    15.7007 </r>
       <r>    14.2919     0.4774    15.7404 </r>
       <r>    14.3752     0.5145    15.7833 </r>
       <r>    14.4585     0.4558    15.8213 </r>
       <r>    14.5418     0.3767    15.8527 </r>
       <r>    14.6251     0.3524    15.8820 </r>
       <r>    14.7084     0.3814    15.9138 </r>
       <r>    14.7917     0.3891    15.9462 </r>
       <r>    14.8750     0.3190    15.9728 </r>
       <r>    14.9583     0.1974    15.9892 </r>
       <r>    15.0416     0.0903    15.9967 </r>
       <r>    15.1249     0.0302    15.9993 </r>
       <r>    15.2082     0.0074    15.9999 </r>
       <r>    15.2916     0.0013    16.0000 </r>
       <r>    15.3749     0.0002    16.0000 </r>
       <r>    15.4582     0.0000    16.0000 </r>
       <r>    15.5415     0.0000    16.0000 </r>
       <r>    15.6248     0.0000    16.0000 </r>
       <r>    15.7081     0.0000    16.0000 </r>
       <r>    15.7914     0.0000    16.0000 </r>
       <r>    15.8747     0.0000    16.0000 </r>
       <r>    15.9580     0.0000    16.0000 </r>
       <r>    16.0413     0.0000    16.0000 </r>
       <r>    16.1246     0.0000    16.0000 </r>
       <r>    16.2079     0.0000    16.0000 </r>
       <r>    16.2912     0.0000    16.0000 </r>
       <r>    16.3746     0.0000    16.0000 </r>
       <r>    16.4579     0.0000    16.0000 </r>
       <r>    16.5412     0.0000    16.0000 </r>
       <r>    16.6245     0.0000    16.0000 </r>
       <r>    16.7078     0.0000    16.0000 </r>
       <r>    16.7911     0.0000    16.0000 </r>
      </set>
     </set>
    </array>
   </total>
  </dos>
 </calculation>
 <structure name="finalpos" >
  <crystal>
   <varray name="basis" >
    <v>      -0.00000000       2.73439642       2.73439642 </v>
    <v>       2.73439642      -0.00000000       2.73439642 </v>
    <v>       2.73439642       2.73439642       0.00000000 </v>
   </varray>
   <i name="volume">     40.88974718 </i>
   <varray name="rec_basis" >
    <v>      -0.18285571       0.18285571       0.18285571 </v>
    <v>       0.18285571      -0.18285571       0.18285571 </v>
    <v>       0.18285571       0.18285571      -0.18285571 </v>
   </varray>
  </crystal>
  <varray name="positions" >
   <v>       0.50000000       0.50000000       0.50000000 </v>
   <v>       0.75000000       0.75000000       0.75000000 </v>
  </varray>
 </structure>
</modeling>
