   2   2   0   0
  0.1529437E+02  0.3691622E-09  0.3691622E-09  0.3691622E-09  0.5000000E-15
  1.000000000000000E-004
  CAR 
 unknown system                          
     23.66478313     -6.61333815  301      9.09462662      1.00000000
     -6.613  0.0000E+00  0.0000E+00
     -6.512  0.0000E+00  0.0000E+00
     -6.411  0.0000E+00  0.0000E+00
     -6.311  0.0000E+00  0.0000E+00
     -6.210  0.0000E+00  0.0000E+00
     -6.109  0.0000E+00  0.0000E+00
     -6.008  0.0000E+00  0.0000E+00
     -5.907  0.0000E+00  0.0000E+00
     -5.806  0.0000E+00  0.0000E+00
     -5.705  0.1056E-16  0.1066E-17
     -5.604  0.2221E-14  0.2252E-15
     -5.503  0.2826E-12  0.2874E-13
     -5.402  0.2183E-10  0.2232E-11
     -5.301  0.1027E-08  0.1059E-09
     -5.200  0.2954E-07  0.3087E-08
     -5.099  0.5236E-06  0.5593E-07
     -4.999  0.5798E-05  0.6411E-06
     -4.898  0.4111E-04  0.4790E-05
     -4.797  0.1947E-03  0.2444E-04
     -4.696  0.6558E-03  0.9063E-04
     -4.595  0.1688E-02  0.2610E-03
     -4.494  0.3504E-02  0.6147E-03
     -4.393  0.5873E-02  0.1207E-02
     -4.292  0.7739E-02  0.1988E-02
     -4.191  0.8481E-02  0.2844E-02
     -4.090  0.9728E-02  0.3826E-02
     -3.989  0.1245E-01  0.5083E-02
     -3.888  0.1403E-01  0.6499E-02
     -3.787  0.1282E-01  0.7793E-02
     -3.686  0.1106E-01  0.8909E-02
     -3.586  0.1126E-01  0.1005E-01
     -3.485  0.1435E-01  0.1149E-01
     -3.384  0.1874E-01  0.1339E-01
     -3.283  0.2088E-01  0.1549E-01
     -3.182  0.2074E-01  0.1759E-01
     -3.081  0.2139E-01  0.1974E-01
     -2.980  0.2185E-01  0.2195E-01
     -2.879  0.1930E-01  0.2390E-01
     -2.778  0.1487E-01  0.2540E-01
     -2.677  0.1217E-01  0.2663E-01
     -2.576  0.1406E-01  0.2804E-01
     -2.475  0.1977E-01  0.3004E-01
     -2.374  0.2513E-01  0.3258E-01
     -2.273  0.2831E-01  0.3543E-01
     -2.173  0.3149E-01  0.3861E-01
     -2.072  0.3353E-01  0.4200E-01
     -1.971  0.2982E-01  0.4501E-01
     -1.870  0.2206E-01  0.4723E-01
     -1.769  0.1819E-01  0.4907E-01
     -1.668  0.2136E-01  0.5123E-01
     -1.567  0.2615E-01  0.5386E-01
     -1.466  0.2679E-01  0.5657E-01
     -1.365  0.2456E-01  0.5905E-01
     -1.264  0.2450E-01  0.6152E-01
     -1.163  0.2797E-01  0.6434E-01
     -1.062  0.3162E-01  0.6753E-01
     -0.961  0.3231E-01  0.7080E-01
     -0.860  0.3024E-01  0.7385E-01
     -0.760  0.2882E-01  0.7676E-01
     -0.659  0.3172E-01  0.7996E-01
     -0.558  0.3690E-01  0.8368E-01
     -0.457  0.3830E-01  0.8755E-01
     -0.356  0.3466E-01  0.9105E-01
     -0.255  0.2981E-01  0.9405E-01
     -0.154  0.2603E-01  0.9668E-01
     -0.053  0.2429E-01  0.9913E-01
      0.048  0.2653E-01  0.1018E+00
      0.149  0.3244E-01  0.1051E+00
      0.250  0.3906E-01  0.1090E+00
      0.351  0.4421E-01  0.1135E+00
      0.452  0.4631E-01  0.1182E+00
      0.552  0.4505E-01  0.1227E+00
      0.653  0.4268E-01  0.1270E+00
      0.754  0.4032E-01  0.1311E+00
      0.855  0.3744E-01  0.1349E+00
      0.956  0.3641E-01  0.1385E+00
      1.057  0.3786E-01  0.1424E+00
      1.158  0.3744E-01  0.1461E+00
      1.259  0.3451E-01  0.1496E+00
      1.360  0.3384E-01  0.1530E+00
      1.461  0.3646E-01  0.1567E+00
      1.562  0.3929E-01  0.1607E+00
      1.663  0.4102E-01  0.1648E+00
      1.764  0.4154E-01  0.1690E+00
      1.865  0.4109E-01  0.1732E+00
      1.965  0.3968E-01  0.1772E+00
      2.066  0.3770E-01  0.1810E+00
      2.167  0.3804E-01  0.1848E+00
      2.268  0.4123E-01  0.1890E+00
      2.369  0.4270E-01  0.1933E+00
      2.470  0.3914E-01  0.1972E+00
      2.571  0.3351E-01  0.2006E+00
      2.672  0.3321E-01  0.2040E+00
      2.773  0.4124E-01  0.2081E+00
      2.874  0.4867E-01  0.2130E+00
      2.975  0.4474E-01  0.2176E+00
      3.076  0.3338E-01  0.2209E+00
      3.177  0.2548E-01  0.2235E+00
      3.278  0.2300E-01  0.2258E+00
      3.378  0.2382E-01  0.2282E+00
      3.479  0.2861E-01  0.2311E+00
      3.580  0.3725E-01  0.2349E+00
      3.681  0.4765E-01  0.2397E+00
      3.782  0.5661E-01  0.2454E+00
      3.883  0.6034E-01  0.2515E+00
      3.984  0.5970E-01  0.2575E+00
      4.085  0.5792E-01  0.2634E+00
      4.186  0.5329E-01  0.2687E+00
      4.287  0.4604E-01  0.2734E+00
      4.388  0.4039E-01  0.2775E+00
      4.489  0.3570E-01  0.2811E+00
      4.590  0.3168E-01  0.2843E+00
      4.690  0.3390E-01  0.2877E+00
      4.791  0.4290E-01  0.2920E+00
      4.892  0.5142E-01  0.2972E+00
      4.993  0.5471E-01  0.3027E+00
      5.094  0.5582E-01  0.3084E+00
      5.195  0.5870E-01  0.3143E+00
      5.296  0.6009E-01  0.3203E+00
      5.397  0.5754E-01  0.3261E+00
      5.498  0.5656E-01  0.3319E+00
      5.599  0.5865E-01  0.3378E+00
      5.700  0.5674E-01  0.3435E+00
      5.801  0.4858E-01  0.3484E+00
      5.902  0.4361E-01  0.3528E+00
      6.003  0.4830E-01  0.3577E+00
      6.103  0.5412E-01  0.3631E+00
      6.204  0.5254E-01  0.3684E+00
      6.305  0.4920E-01  0.3734E+00
      6.406  0.5330E-01  0.3788E+00
      6.507  0.6432E-01  0.3853E+00
      6.608  0.7222E-01  0.3926E+00
      6.709  0.6894E-01  0.3995E+00
      6.810  0.5990E-01  0.4056E+00
      6.911  0.5736E-01  0.4114E+00
      7.012  0.6485E-01  0.4179E+00
      7.113  0.7481E-01  0.4255E+00
      7.214  0.7803E-01  0.4333E+00
      7.315  0.7259E-01  0.4407E+00
      7.416  0.6365E-01  0.4471E+00
      7.516  0.5680E-01  0.4528E+00
      7.617  0.5321E-01  0.4582E+00
      7.718  0.5117E-01  0.4634E+00
      7.819  0.5126E-01  0.4685E+00
      7.920  0.5527E-01  0.4741E+00
      8.021  0.6142E-01  0.4803E+00
      8.122  0.6457E-01  0.4868E+00
      8.223  0.6168E-01  0.4930E+00
      8.324  0.5663E-01  0.4988E+00
      8.425  0.5523E-01  0.5043E+00
      8.526  0.5579E-01  0.5100E+00
      8.627  0.5134E-01  0.5151E+00
      8.728  0.4242E-01  0.5194E+00
      8.829  0.3682E-01  0.5231E+00
      8.929  0.3620E-01  0.5268E+00
      9.030  0.3819E-01  0.5307E+00
      9.131  0.4265E-01  0.5350E+00
      9.232  0.4667E-01  0.5397E+00
      9.333  0.4621E-01  0.5443E+00
      9.434  0.4416E-01  0.5488E+00
      9.535  0.4633E-01  0.5535E+00
      9.636  0.5249E-01  0.5588E+00
      9.737  0.5815E-01  0.5646E+00
      9.838  0.5989E-01  0.5707E+00
      9.939  0.5530E-01  0.5763E+00
     10.040  0.4522E-01  0.5808E+00
     10.141  0.3657E-01  0.5845E+00
     10.241  0.3467E-01  0.5880E+00
     10.342  0.3765E-01  0.5918E+00
     10.443  0.4042E-01  0.5959E+00
     10.544  0.3994E-01  0.5999E+00
     10.645  0.3844E-01  0.6038E+00
     10.746  0.4073E-01  0.6079E+00
     10.847  0.4750E-01  0.6127E+00
     10.948  0.5536E-01  0.6183E+00
     11.049  0.6226E-01  0.6246E+00
     11.150  0.6805E-01  0.6314E+00
     11.251  0.7168E-01  0.6387E+00
     11.352  0.6981E-01  0.6457E+00
     11.453  0.6159E-01  0.6519E+00
     11.554  0.5310E-01  0.6573E+00
     11.654  0.5149E-01  0.6625E+00
     11.755  0.5939E-01  0.6685E+00
     11.856  0.7425E-01  0.6760E+00
     11.957  0.8729E-01  0.6848E+00
     12.058  0.8728E-01  0.6936E+00
     12.159  0.7484E-01  0.7012E+00
     12.260  0.6589E-01  0.7078E+00
     12.361  0.7115E-01  0.7150E+00
     12.462  0.8201E-01  0.7233E+00
     12.563  0.8215E-01  0.7316E+00
     12.664  0.6934E-01  0.7386E+00
     12.765  0.5740E-01  0.7443E+00
     12.866  0.5435E-01  0.7498E+00
     12.967  0.5575E-01  0.7555E+00
     13.067  0.5582E-01  0.7611E+00
     13.168  0.5250E-01  0.7664E+00
     13.269  0.4911E-01  0.7714E+00
     13.370  0.4895E-01  0.7763E+00
     13.471  0.5131E-01  0.7815E+00
     13.572  0.5742E-01  0.7873E+00
     13.673  0.6956E-01  0.7943E+00
     13.774  0.8577E-01  0.8029E+00
     13.875  0.9860E-01  0.8129E+00
     13.976  0.9658E-01  0.8226E+00
     14.077  0.7654E-01  0.8304E+00
     14.178  0.5306E-01  0.8357E+00
     14.279  0.4349E-01  0.8401E+00
     14.379  0.4971E-01  0.8451E+00
     14.480  0.6271E-01  0.8515E+00
     14.581  0.7526E-01  0.8591E+00
     14.682  0.8479E-01  0.8676E+00
     14.783  0.8970E-01  0.8767E+00
     14.884  0.8813E-01  0.8856E+00
     14.985  0.8121E-01  0.8938E+00
     15.086  0.7564E-01  0.9014E+00
     15.187  0.7672E-01  0.9091E+00
     15.288  0.7931E-01  0.9171E+00
     15.389  0.7426E-01  0.9246E+00
     15.490  0.6078E-01  0.9308E+00
     15.591  0.4762E-01  0.9356E+00
     15.692  0.4334E-01  0.9399E+00
     15.792  0.4685E-01  0.9447E+00
     15.893  0.5006E-01  0.9497E+00
     15.994  0.4844E-01  0.9546E+00
     16.095  0.4495E-01  0.9592E+00
     16.196  0.4197E-01  0.9634E+00
     16.297  0.3787E-01  0.9672E+00
     16.398  0.3577E-01  0.9708E+00
     16.499  0.4325E-01  0.9752E+00
     16.600  0.5814E-01  0.9811E+00
     16.701  0.6906E-01  0.9880E+00
     16.802  0.6949E-01  0.9950E+00
     16.903  0.5998E-01  0.1001E+01
     17.004  0.4562E-01  0.1006E+01
     17.105  0.3450E-01  0.1009E+01
     17.205  0.2929E-01  0.1012E+01
     17.306  0.2678E-01  0.1015E+01
     17.407  0.2638E-01  0.1017E+01
     17.508  0.3006E-01  0.1021E+01
     17.609  0.3607E-01  0.1024E+01
     17.710  0.3945E-01  0.1028E+01
     17.811  0.3799E-01  0.1032E+01
     17.912  0.3445E-01  0.1035E+01
     18.013  0.3196E-01  0.1039E+01
     18.114  0.2935E-01  0.1042E+01
     18.215  0.2375E-01  0.1044E+01
     18.316  0.1617E-01  0.1046E+01
     18.417  0.9923E-02  0.1047E+01
     18.518  0.5820E-02  0.1047E+01
     18.618  0.3507E-02  0.1048E+01
     18.719  0.4201E-02  0.1048E+01
     18.820  0.9149E-02  0.1049E+01
     18.921  0.1672E-01  0.1051E+01
     19.022  0.2230E-01  0.1053E+01
     19.123  0.2191E-01  0.1055E+01
     19.224  0.1584E-01  0.1057E+01
     19.325  0.8461E-02  0.1058E+01
     19.426  0.3932E-02  0.1058E+01
     19.527  0.2556E-02  0.1058E+01
     19.628  0.2313E-02  0.1058E+01
     19.729  0.2580E-02  0.1059E+01
     19.830  0.4490E-02  0.1059E+01
     19.930  0.7773E-02  0.1060E+01
     20.031  0.9845E-02  0.1061E+01
     20.132  0.9544E-02  0.1062E+01
     20.233  0.8338E-02  0.1063E+01
     20.334  0.7112E-02  0.1063E+01
     20.435  0.5344E-02  0.1064E+01
     20.536  0.3029E-02  0.1064E+01
     20.637  0.1176E-02  0.1064E+01
     20.738  0.3910E-03  0.1064E+01
     20.839  0.5538E-03  0.1065E+01
     20.940  0.1568E-02  0.1065E+01
     21.041  0.3061E-02  0.1065E+01
     21.142  0.3848E-02  0.1065E+01
     21.243  0.3122E-02  0.1066E+01
     21.343  0.1691E-02  0.1066E+01
     21.444  0.8847E-03  0.1066E+01
     21.545  0.1124E-02  0.1066E+01
     21.646  0.1818E-02  0.1066E+01
     21.747  0.1973E-02  0.1066E+01
     21.848  0.1324E-02  0.1067E+01
     21.949  0.5453E-03  0.1067E+01
     22.050  0.1377E-03  0.1067E+01
     22.151  0.2128E-04  0.1067E+01
     22.252  0.2010E-05  0.1067E+01
     22.353  0.1159E-06  0.1067E+01
     22.454  0.4070E-08  0.1067E+01
     22.555  0.8695E-10  0.1067E+01
     22.656  0.1128E-11  0.1067E+01
     22.756  0.8877E-14  0.1067E+01
     22.857  0.4185E-16  0.1067E+01
     22.958  0.0000E+00  0.1067E+01
     23.059  0.0000E+00  0.1067E+01
     23.160  0.0000E+00  0.1067E+01
     23.261  0.0000E+00  0.1067E+01
     23.362  0.0000E+00  0.1067E+01
     23.463  0.0000E+00  0.1067E+01
     23.564  0.0000E+00  0.1067E+01
     23.665  0.0000E+00  0.1067E+01
