   2   2   0   0
  0.1529437E+02  0.3691622E-09  0.3691622E-09  0.3691622E-09  0.5000000E-15
  1.000000000000000E-004
  CAR 
 unknown system                          
     23.11775407     -6.55456377  301      9.07488087      1.00000000
     -6.555  0.0000E+00  0.0000E+00
     -6.456  0.0000E+00  0.0000E+00
     -6.357  0.0000E+00  0.0000E+00
     -6.258  0.0000E+00  0.0000E+00
     -6.159  0.0000E+00  0.0000E+00
     -6.060  0.0000E+00  0.0000E+00
     -5.961  0.0000E+00  0.0000E+00
     -5.862  0.0000E+00  0.0000E+00
     -5.763  0.0000E+00  0.0000E+00
     -5.664  0.1137E-16  0.1125E-17
     -5.565  0.2357E-14  0.2343E-15
     -5.467  0.3014E-12  0.3004E-13
     -5.368  0.2383E-10  0.2387E-11
     -5.269  0.1167E-08  0.1178E-09
     -5.170  0.3544E-07  0.3623E-08
     -5.071  0.6693E-06  0.6982E-07
     -4.972  0.7883E-05  0.8495E-06
     -4.873  0.5833E-04  0.6618E-05
     -4.774  0.2754E-03  0.3385E-04
     -4.675  0.8628E-03  0.1192E-03
     -4.576  0.1958E-02  0.3129E-03
     -4.478  0.3675E-02  0.6764E-03
     -4.379  0.6118E-02  0.1282E-02
     -4.280  0.8571E-02  0.2129E-02
     -4.181  0.9638E-02  0.3083E-02
     -4.082  0.9373E-02  0.4010E-02
     -3.983  0.9756E-02  0.4975E-02
     -3.884  0.1198E-01  0.6159E-02
     -3.785  0.1433E-01  0.7576E-02
     -3.686  0.1475E-01  0.9035E-02
     -3.587  0.1415E-01  0.1044E-01
     -3.488  0.1468E-01  0.1189E-01
     -3.390  0.1647E-01  0.1352E-01
     -3.291  0.1832E-01  0.1533E-01
     -3.192  0.1937E-01  0.1724E-01
     -3.093  0.1923E-01  0.1915E-01
     -2.994  0.1890E-01  0.2102E-01
     -2.895  0.1928E-01  0.2292E-01
     -2.796  0.1880E-01  0.2478E-01
     -2.697  0.1675E-01  0.2644E-01
     -2.598  0.1576E-01  0.2800E-01
     -2.499  0.1854E-01  0.2983E-01
     -2.400  0.2400E-01  0.3220E-01
     -2.302  0.2871E-01  0.3504E-01
     -2.203  0.3108E-01  0.3812E-01
     -2.104  0.3166E-01  0.4125E-01
     -2.005  0.2959E-01  0.4417E-01
     -1.906  0.2318E-01  0.4647E-01
     -1.807  0.1581E-01  0.4803E-01
     -1.708  0.1417E-01  0.4943E-01
     -1.609  0.2018E-01  0.5143E-01
     -1.510  0.2907E-01  0.5430E-01
     -1.411  0.3372E-01  0.5764E-01
     -1.312  0.3152E-01  0.6076E-01
     -1.214  0.2736E-01  0.6346E-01
     -1.115  0.2713E-01  0.6615E-01
     -1.016  0.2983E-01  0.6910E-01
     -0.917  0.3128E-01  0.7219E-01
     -0.818  0.3176E-01  0.7533E-01
     -0.719  0.3283E-01  0.7858E-01
     -0.620  0.3314E-01  0.8186E-01
     -0.521  0.3155E-01  0.8498E-01
     -0.422  0.2955E-01  0.8790E-01
     -0.323  0.2919E-01  0.9079E-01
     -0.224  0.3095E-01  0.9385E-01
     -0.126  0.3374E-01  0.9719E-01
     -0.027  0.3534E-01  0.1007E+00
      0.072  0.3535E-01  0.1042E+00
      0.171  0.3709E-01  0.1078E+00
      0.270  0.4169E-01  0.1120E+00
      0.369  0.4442E-01  0.1164E+00
      0.468  0.4182E-01  0.1205E+00
      0.567  0.3651E-01  0.1241E+00
      0.666  0.3219E-01  0.1273E+00
      0.765  0.2966E-01  0.1302E+00
      0.864  0.2914E-01  0.1331E+00
      0.962  0.3128E-01  0.1362E+00
      1.061  0.3461E-01  0.1396E+00
      1.160  0.3776E-01  0.1434E+00
      1.259  0.4226E-01  0.1475E+00
      1.358  0.4714E-01  0.1522E+00
      1.457  0.4808E-01  0.1570E+00
      1.556  0.4508E-01  0.1614E+00
      1.655  0.4224E-01  0.1656E+00
      1.754  0.4174E-01  0.1697E+00
      1.853  0.4356E-01  0.1740E+00
      1.952  0.4435E-01  0.1784E+00
      2.050  0.3786E-01  0.1822E+00
      2.149  0.2536E-01  0.1847E+00
      2.248  0.1692E-01  0.1863E+00
      2.347  0.1863E-01  0.1882E+00
      2.446  0.2690E-01  0.1908E+00
      2.545  0.3484E-01  0.1943E+00
      2.644  0.3907E-01  0.1982E+00
      2.743  0.4041E-01  0.2022E+00
      2.842  0.4217E-01  0.2063E+00
      2.941  0.4656E-01  0.2109E+00
      3.039  0.5094E-01  0.2160E+00
      3.138  0.5108E-01  0.2210E+00
      3.237  0.4698E-01  0.2257E+00
      3.336  0.4065E-01  0.2297E+00
      3.435  0.3387E-01  0.2330E+00
      3.534  0.3122E-01  0.2361E+00
      3.633  0.3571E-01  0.2397E+00
      3.732  0.4251E-01  0.2439E+00
      3.831  0.4599E-01  0.2484E+00
      3.930  0.4640E-01  0.2530E+00
      4.029  0.4514E-01  0.2575E+00
      4.127  0.4192E-01  0.2616E+00
      4.226  0.3833E-01  0.2654E+00
      4.325  0.3961E-01  0.2693E+00
      4.424  0.4945E-01  0.2742E+00
      4.523  0.6184E-01  0.2803E+00
      4.622  0.6629E-01  0.2869E+00
      4.721  0.6041E-01  0.2929E+00
      4.820  0.5059E-01  0.2979E+00
      4.919  0.4347E-01  0.3022E+00
      5.018  0.4075E-01  0.3062E+00
      5.117  0.4124E-01  0.3103E+00
      5.215  0.4349E-01  0.3146E+00
      5.314  0.4526E-01  0.3191E+00
      5.413  0.4557E-01  0.3236E+00
      5.512  0.4718E-01  0.3282E+00
      5.611  0.5224E-01  0.3334E+00
      5.710  0.5596E-01  0.3389E+00
      5.809  0.5298E-01  0.3442E+00
      5.908  0.4849E-01  0.3490E+00
      6.007  0.5132E-01  0.3540E+00
      6.106  0.6013E-01  0.3600E+00
      6.205  0.6586E-01  0.3665E+00
      6.303  0.6451E-01  0.3729E+00
      6.402  0.6056E-01  0.3789E+00
      6.501  0.5964E-01  0.3848E+00
      6.600  0.6146E-01  0.3909E+00
      6.699  0.6158E-01  0.3969E+00
      6.798  0.5957E-01  0.4028E+00
      6.897  0.5837E-01  0.4086E+00
      6.996  0.5733E-01  0.4143E+00
      7.095  0.5607E-01  0.4198E+00
      7.194  0.5698E-01  0.4255E+00
      7.293  0.6070E-01  0.4315E+00
      7.391  0.6709E-01  0.4381E+00
      7.490  0.7555E-01  0.4456E+00
      7.589  0.8220E-01  0.4537E+00
      7.688  0.8142E-01  0.4618E+00
      7.787  0.7234E-01  0.4689E+00
      7.886  0.6036E-01  0.4749E+00
      7.985  0.4965E-01  0.4798E+00
      8.084  0.4157E-01  0.4839E+00
      8.183  0.3789E-01  0.4876E+00
      8.282  0.3873E-01  0.4915E+00
      8.381  0.4281E-01  0.4957E+00
      8.479  0.4850E-01  0.5005E+00
      8.578  0.5384E-01  0.5058E+00
      8.677  0.5798E-01  0.5116E+00
      8.776  0.5946E-01  0.5175E+00
      8.875  0.5604E-01  0.5230E+00
      8.974  0.5104E-01  0.5280E+00
      9.073  0.5235E-01  0.5332E+00
      9.172  0.5804E-01  0.5390E+00
      9.271  0.5601E-01  0.5445E+00
      9.370  0.4349E-01  0.5488E+00
      9.468  0.3008E-01  0.5518E+00
      9.567  0.2422E-01  0.5542E+00
      9.666  0.2880E-01  0.5570E+00
      9.765  0.4103E-01  0.5611E+00
      9.864  0.5202E-01  0.5662E+00
      9.963  0.5431E-01  0.5716E+00
     10.062  0.4863E-01  0.5764E+00
     10.161  0.4175E-01  0.5805E+00
     10.260  0.4235E-01  0.5847E+00
     10.359  0.5461E-01  0.5901E+00
     10.458  0.7128E-01  0.5972E+00
     10.556  0.7868E-01  0.6050E+00
     10.655  0.7068E-01  0.6119E+00
     10.754  0.5506E-01  0.6174E+00
     10.853  0.4462E-01  0.6218E+00
     10.952  0.4481E-01  0.6262E+00
     11.051  0.5075E-01  0.6313E+00
     11.150  0.5408E-01  0.6366E+00
     11.249  0.5103E-01  0.6417E+00
     11.348  0.4599E-01  0.6462E+00
     11.447  0.4683E-01  0.6508E+00
     11.546  0.5482E-01  0.6563E+00
     11.644  0.6316E-01  0.6625E+00
     11.743  0.6527E-01  0.6690E+00
     11.842  0.6224E-01  0.6751E+00
     11.941  0.6168E-01  0.6812E+00
     12.040  0.6561E-01  0.6877E+00
     12.139  0.6582E-01  0.6942E+00
     12.238  0.5905E-01  0.7001E+00
     12.337  0.5379E-01  0.7054E+00
     12.436  0.5566E-01  0.7109E+00
     12.535  0.6064E-01  0.7169E+00
     12.634  0.6582E-01  0.7234E+00
     12.732  0.7346E-01  0.7307E+00
     12.831  0.8236E-01  0.7388E+00
     12.930  0.8645E-01  0.7474E+00
     13.029  0.8277E-01  0.7555E+00
     13.128  0.7443E-01  0.7629E+00
     13.227  0.6829E-01  0.7697E+00
     13.326  0.6932E-01  0.7765E+00
     13.425  0.7482E-01  0.7839E+00
     13.524  0.7831E-01  0.7917E+00
     13.623  0.7762E-01  0.7993E+00
     13.722  0.7259E-01  0.8065E+00
     13.820  0.6346E-01  0.8128E+00
     13.919  0.5777E-01  0.8185E+00
     14.018  0.6181E-01  0.8246E+00
     14.117  0.6759E-01  0.8313E+00
     14.216  0.6755E-01  0.8380E+00
     14.315  0.6857E-01  0.8448E+00
     14.414  0.7543E-01  0.8522E+00
     14.513  0.7852E-01  0.8600E+00
     14.612  0.7014E-01  0.8669E+00
     14.711  0.5674E-01  0.8725E+00
     14.810  0.4807E-01  0.8773E+00
     14.908  0.4666E-01  0.8819E+00
     15.007  0.5055E-01  0.8869E+00
     15.106  0.5810E-01  0.8927E+00
     15.205  0.6845E-01  0.8994E+00
     15.304  0.7827E-01  0.9072E+00
     15.403  0.7986E-01  0.9151E+00
     15.502  0.6993E-01  0.9220E+00
     15.601  0.5717E-01  0.9276E+00
     15.700  0.5243E-01  0.9328E+00
     15.799  0.5536E-01  0.9383E+00
     15.897  0.5698E-01  0.9439E+00
     15.996  0.5304E-01  0.9492E+00
     16.095  0.4776E-01  0.9539E+00
     16.194  0.4609E-01  0.9585E+00
     16.293  0.4761E-01  0.9632E+00
     16.392  0.4934E-01  0.9681E+00
     16.491  0.5088E-01  0.9731E+00
     16.590  0.5200E-01  0.9782E+00
     16.689  0.5030E-01  0.9832E+00
     16.788  0.4588E-01  0.9877E+00
     16.887  0.4130E-01  0.9918E+00
     16.985  0.3617E-01  0.9954E+00
     17.084  0.2945E-01  0.9983E+00
     17.183  0.2411E-01  0.1001E+01
     17.282  0.2232E-01  0.1003E+01
     17.381  0.2285E-01  0.1005E+01
     17.480  0.2599E-01  0.1008E+01
     17.579  0.3157E-01  0.1011E+01
     17.678  0.3467E-01  0.1014E+01
     17.777  0.3324E-01  0.1018E+01
     17.876  0.3265E-01  0.1021E+01
     17.975  0.3542E-01  0.1024E+01
     18.073  0.3674E-01  0.1028E+01
     18.172  0.3329E-01  0.1031E+01
     18.271  0.2812E-01  0.1034E+01
     18.370  0.2485E-01  0.1036E+01
     18.469  0.2261E-01  0.1039E+01
     18.568  0.2033E-01  0.1041E+01
     18.667  0.1905E-01  0.1043E+01
     18.766  0.1834E-01  0.1044E+01
     18.865  0.1764E-01  0.1046E+01
     18.964  0.1898E-01  0.1048E+01
     19.063  0.2269E-01  0.1050E+01
     19.161  0.2468E-01  0.1053E+01
     19.260  0.2219E-01  0.1055E+01
     19.359  0.1752E-01  0.1057E+01
     19.458  0.1350E-01  0.1058E+01
     19.557  0.1064E-01  0.1059E+01
     19.656  0.8441E-02  0.1060E+01
     19.755  0.6777E-02  0.1061E+01
     19.854  0.6007E-02  0.1061E+01
     19.953  0.6174E-02  0.1062E+01
     20.052  0.6910E-02  0.1062E+01
     20.151  0.7419E-02  0.1063E+01
     20.249  0.6582E-02  0.1064E+01
     20.348  0.4344E-02  0.1064E+01
     20.447  0.2040E-02  0.1064E+01
     20.546  0.7963E-03  0.1065E+01
     20.645  0.7447E-03  0.1065E+01
     20.744  0.1528E-02  0.1065E+01
     20.843  0.2570E-02  0.1065E+01
     20.942  0.3383E-02  0.1065E+01
     21.041  0.3937E-02  0.1066E+01
     21.140  0.3996E-02  0.1066E+01
     21.239  0.3076E-02  0.1066E+01
     21.337  0.1611E-02  0.1067E+01
     21.436  0.5463E-03  0.1067E+01
     21.535  0.1176E-03  0.1067E+01
     21.634  0.1592E-04  0.1067E+01
     21.733  0.1349E-05  0.1067E+01
     21.832  0.7128E-07  0.1067E+01
     21.931  0.2342E-08  0.1067E+01
     22.030  0.4777E-10  0.1067E+01
     22.129  0.6037E-12  0.1067E+01
     22.228  0.4719E-14  0.1067E+01
     22.326  0.2275E-16  0.1067E+01
     22.425  0.0000E+00  0.1067E+01
     22.524  0.0000E+00  0.1067E+01
     22.623  0.0000E+00  0.1067E+01
     22.722  0.0000E+00  0.1067E+01
     22.821  0.0000E+00  0.1067E+01
     22.920  0.0000E+00  0.1067E+01
     23.019  0.0000E+00  0.1067E+01
     23.118  0.0000E+00  0.1067E+01
