   2   2   0   0
  0.1529437E+02  0.3691622E-09  0.3691622E-09  0.3691622E-09  0.5000000E-15
  1.000000000000000E-004
  CAR 
 unknown system                          
     23.69703478     -6.57583789  301      9.01069208      1.00000000
     -6.576  0.0000E+00  0.0000E+00
     -6.475  0.0000E+00  0.0000E+00
     -6.374  0.0000E+00  0.0000E+00
     -6.273  0.0000E+00  0.0000E+00
     -6.172  0.0000E+00  0.0000E+00
     -6.071  0.0000E+00  0.0000E+00
     -5.970  0.0000E+00  0.0000E+00
     -5.869  0.0000E+00  0.0000E+00
     -5.769  0.0000E+00  0.0000E+00
     -5.668  0.3081E-16  0.3109E-17
     -5.567  0.6417E-14  0.6507E-15
     -5.466  0.8159E-12  0.8298E-13
     -5.365  0.6295E-10  0.6435E-11
     -5.264  0.2952E-08  0.3043E-09
     -5.163  0.8432E-07  0.8813E-08
     -5.062  0.1472E-05  0.1573E-06
     -4.961  0.1578E-04  0.1750E-05
     -4.860  0.1050E-03  0.1235E-04
     -4.759  0.4437E-03  0.5712E-04
     -4.659  0.1259E-02  0.1842E-03
     -4.558  0.2677E-02  0.4543E-03
     -4.457  0.4827E-02  0.9413E-03
     -4.356  0.7491E-02  0.1697E-02
     -4.255  0.9307E-02  0.2636E-02
     -4.154  0.9282E-02  0.3573E-02
     -4.053  0.8968E-02  0.4478E-02
     -3.952  0.1077E-01  0.5565E-02
     -3.851  0.1421E-01  0.6999E-02
     -3.750  0.1605E-01  0.8618E-02
     -3.649  0.1549E-01  0.1018E-01
     -3.549  0.1501E-01  0.1170E-01
     -3.448  0.1523E-01  0.1323E-01
     -3.347  0.1561E-01  0.1481E-01
     -3.246  0.1682E-01  0.1651E-01
     -3.145  0.1851E-01  0.1837E-01
     -3.044  0.1951E-01  0.2034E-01
     -2.943  0.2028E-01  0.2239E-01
     -2.842  0.2187E-01  0.2459E-01
     -2.741  0.2184E-01  0.2680E-01
     -2.640  0.1814E-01  0.2863E-01
     -2.539  0.1538E-01  0.3018E-01
     -2.439  0.1939E-01  0.3214E-01
     -2.338  0.2815E-01  0.3498E-01
     -2.237  0.3300E-01  0.3831E-01
     -2.136  0.3039E-01  0.4137E-01
     -2.035  0.2552E-01  0.4395E-01
     -1.934  0.2226E-01  0.4620E-01
     -1.833  0.1993E-01  0.4821E-01
     -1.732  0.1870E-01  0.5010E-01
     -1.631  0.1971E-01  0.5208E-01
     -1.530  0.2275E-01  0.5438E-01
     -1.429  0.2811E-01  0.5722E-01
     -1.329  0.3505E-01  0.6075E-01
     -1.228  0.3791E-01  0.6458E-01
     -1.127  0.3345E-01  0.6796E-01
     -1.026  0.2770E-01  0.7075E-01
     -0.925  0.2766E-01  0.7354E-01
     -0.824  0.3229E-01  0.7680E-01
     -0.723  0.3598E-01  0.8043E-01
     -0.622  0.3599E-01  0.8406E-01
     -0.521  0.3287E-01  0.8738E-01
     -0.420  0.2767E-01  0.9017E-01
     -0.319  0.2240E-01  0.9243E-01
     -0.219  0.2026E-01  0.9448E-01
     -0.118  0.2357E-01  0.9685E-01
     -0.017  0.3190E-01  0.1001E+00
      0.084  0.4188E-01  0.1043E+00
      0.185  0.4789E-01  0.1091E+00
      0.286  0.4641E-01  0.1138E+00
      0.387  0.4125E-01  0.1180E+00
      0.488  0.3891E-01  0.1219E+00
      0.589  0.3983E-01  0.1259E+00
      0.690  0.3953E-01  0.1299E+00
      0.791  0.3607E-01  0.1336E+00
      0.891  0.3324E-01  0.1369E+00
      0.992  0.3450E-01  0.1404E+00
      1.093  0.3861E-01  0.1443E+00
      1.194  0.4404E-01  0.1487E+00
      1.295  0.4765E-01  0.1535E+00
      1.396  0.4537E-01  0.1581E+00
      1.497  0.4074E-01  0.1622E+00
      1.598  0.3884E-01  0.1661E+00
      1.699  0.3699E-01  0.1699E+00
      1.800  0.3495E-01  0.1734E+00
      1.901  0.3828E-01  0.1773E+00
      2.001  0.4432E-01  0.1817E+00
      2.102  0.4378E-01  0.1862E+00
      2.203  0.3696E-01  0.1899E+00
      2.304  0.3147E-01  0.1931E+00
      2.405  0.2966E-01  0.1961E+00
      2.506  0.2910E-01  0.1990E+00
      2.607  0.2918E-01  0.2019E+00
      2.708  0.3056E-01  0.2050E+00
      2.809  0.3219E-01  0.2083E+00
      2.910  0.3287E-01  0.2116E+00
      3.011  0.3454E-01  0.2151E+00
      3.111  0.4048E-01  0.2192E+00
      3.212  0.4965E-01  0.2242E+00
      3.313  0.5748E-01  0.2300E+00
      3.414  0.6010E-01  0.2360E+00
      3.515  0.5574E-01  0.2417E+00
      3.616  0.4725E-01  0.2464E+00
      3.717  0.4061E-01  0.2505E+00
      3.818  0.3790E-01  0.2543E+00
      3.919  0.3689E-01  0.2581E+00
      4.020  0.3581E-01  0.2617E+00
      4.121  0.3373E-01  0.2651E+00
      4.221  0.3095E-01  0.2682E+00
      4.322  0.3146E-01  0.2714E+00
      4.423  0.3839E-01  0.2753E+00
      4.524  0.4803E-01  0.2801E+00
      4.625  0.5531E-01  0.2857E+00
      4.726  0.6099E-01  0.2918E+00
      4.827  0.6570E-01  0.2985E+00
      4.928  0.6596E-01  0.3051E+00
      5.029  0.6213E-01  0.3114E+00
      5.130  0.5769E-01  0.3172E+00
      5.231  0.5116E-01  0.3224E+00
      5.331  0.4048E-01  0.3265E+00
      5.432  0.3172E-01  0.3297E+00
      5.533  0.3243E-01  0.3329E+00
      5.634  0.4133E-01  0.3371E+00
      5.735  0.5252E-01  0.3424E+00
      5.836  0.6277E-01  0.3487E+00
      5.937  0.7056E-01  0.3559E+00
      6.038  0.7250E-01  0.3632E+00
      6.139  0.6700E-01  0.3699E+00
      6.240  0.5931E-01  0.3759E+00
      6.341  0.5484E-01  0.3815E+00
      6.441  0.5422E-01  0.3869E+00
      6.542  0.5603E-01  0.3926E+00
      6.643  0.5909E-01  0.3985E+00
      6.744  0.6243E-01  0.4048E+00
      6.845  0.6347E-01  0.4113E+00
      6.946  0.6222E-01  0.4175E+00
      7.047  0.6213E-01  0.4238E+00
      7.148  0.6554E-01  0.4304E+00
      7.249  0.7280E-01  0.4378E+00
      7.350  0.7836E-01  0.4457E+00
      7.451  0.7392E-01  0.4531E+00
      7.552  0.6222E-01  0.4594E+00
      7.652  0.5405E-01  0.4649E+00
      7.753  0.5415E-01  0.4703E+00
      7.854  0.5724E-01  0.4761E+00
      7.955  0.5519E-01  0.4817E+00
      8.056  0.4852E-01  0.4866E+00
      8.157  0.4564E-01  0.4912E+00
      8.258  0.4974E-01  0.4962E+00
      8.359  0.5485E-01  0.5017E+00
      8.460  0.5580E-01  0.5074E+00
      8.561  0.5239E-01  0.5126E+00
      8.662  0.4657E-01  0.5173E+00
      8.762  0.4241E-01  0.5216E+00
      8.863  0.4332E-01  0.5260E+00
      8.964  0.4856E-01  0.5309E+00
      9.065  0.5314E-01  0.5363E+00
      9.166  0.5097E-01  0.5414E+00
      9.267  0.4100E-01  0.5455E+00
      9.368  0.3044E-01  0.5486E+00
      9.469  0.2956E-01  0.5516E+00
      9.570  0.4023E-01  0.5556E+00
      9.671  0.5216E-01  0.5609E+00
      9.772  0.5622E-01  0.5666E+00
      9.872  0.5441E-01  0.5721E+00
      9.973  0.5326E-01  0.5775E+00
     10.074  0.5430E-01  0.5829E+00
     10.175  0.5322E-01  0.5883E+00
     10.276  0.4727E-01  0.5931E+00
     10.377  0.3977E-01  0.5971E+00
     10.478  0.3599E-01  0.6007E+00
     10.579  0.3855E-01  0.6046E+00
     10.680  0.4517E-01  0.6092E+00
     10.781  0.5081E-01  0.6143E+00
     10.882  0.5269E-01  0.6196E+00
     10.982  0.5124E-01  0.6248E+00
     11.083  0.4983E-01  0.6298E+00
     11.184  0.5255E-01  0.6351E+00
     11.285  0.6065E-01  0.6412E+00
     11.386  0.7242E-01  0.6485E+00
     11.487  0.8097E-01  0.6567E+00
     11.588  0.7923E-01  0.6647E+00
     11.689  0.7126E-01  0.6719E+00
     11.790  0.6602E-01  0.6786E+00
     11.891  0.6522E-01  0.6851E+00
     11.992  0.6476E-01  0.6917E+00
     12.092  0.6177E-01  0.6979E+00
     12.193  0.5992E-01  0.7040E+00
     12.294  0.6419E-01  0.7104E+00
     12.395  0.7136E-01  0.7176E+00
     12.496  0.7434E-01  0.7251E+00
     12.597  0.7113E-01  0.7323E+00
     12.698  0.6591E-01  0.7390E+00
     12.799  0.6412E-01  0.7454E+00
     12.900  0.6619E-01  0.7521E+00
     13.001  0.6880E-01  0.7591E+00
     13.102  0.6975E-01  0.7661E+00
     13.202  0.6809E-01  0.7730E+00
     13.303  0.6423E-01  0.7794E+00
     13.404  0.5938E-01  0.7854E+00
     13.505  0.5354E-01  0.7908E+00
     13.606  0.4950E-01  0.7958E+00
     13.707  0.5402E-01  0.8013E+00
     13.808  0.6747E-01  0.8081E+00
     13.909  0.7892E-01  0.8161E+00
     14.010  0.7904E-01  0.8240E+00
     14.111  0.7288E-01  0.8314E+00
     14.212  0.7094E-01  0.8385E+00
     14.312  0.7693E-01  0.8463E+00
     14.413  0.8825E-01  0.8552E+00
     14.514  0.9653E-01  0.8650E+00
     14.615  0.9280E-01  0.8743E+00
     14.716  0.7852E-01  0.8822E+00
     14.817  0.6566E-01  0.8889E+00
     14.918  0.6148E-01  0.8951E+00
     15.019  0.6103E-01  0.9012E+00
     15.120  0.5845E-01  0.9071E+00
     15.221  0.5643E-01  0.9128E+00
     15.322  0.6114E-01  0.9190E+00
     15.422  0.7096E-01  0.9262E+00
     15.523  0.7616E-01  0.9338E+00
     15.624  0.7088E-01  0.9410E+00
     15.725  0.5939E-01  0.9470E+00
     15.826  0.4848E-01  0.9519E+00
     15.927  0.4144E-01  0.9561E+00
     16.028  0.3963E-01  0.9601E+00
     16.129  0.4179E-01  0.9643E+00
     16.230  0.4435E-01  0.9688E+00
     16.331  0.4582E-01  0.9734E+00
     16.432  0.4728E-01  0.9781E+00
     16.532  0.4957E-01  0.9832E+00
     16.633  0.5174E-01  0.9884E+00
     16.734  0.5218E-01  0.9936E+00
     16.835  0.5030E-01  0.9987E+00
     16.936  0.4770E-01  0.1004E+01
     17.037  0.4866E-01  0.1008E+01
     17.138  0.5324E-01  0.1014E+01
     17.239  0.5437E-01  0.1019E+01
     17.340  0.4837E-01  0.1024E+01
     17.441  0.3847E-01  0.1028E+01
     17.542  0.2784E-01  0.1031E+01
     17.642  0.1825E-01  0.1033E+01
     17.743  0.1197E-01  0.1034E+01
     17.844  0.1134E-01  0.1035E+01
     17.945  0.1632E-01  0.1037E+01
     18.046  0.2335E-01  0.1039E+01
     18.147  0.2736E-01  0.1042E+01
     18.248  0.2499E-01  0.1044E+01
     18.349  0.1831E-01  0.1046E+01
     18.450  0.1282E-01  0.1047E+01
     18.551  0.1050E-01  0.1049E+01
     18.652  0.9780E-02  0.1050E+01
     18.752  0.9281E-02  0.1050E+01
     18.853  0.8593E-02  0.1051E+01
     18.954  0.7690E-02  0.1052E+01
     19.055  0.7322E-02  0.1053E+01
     19.156  0.9286E-02  0.1054E+01
     19.257  0.1332E-01  0.1055E+01
     19.358  0.1583E-01  0.1057E+01
     19.459  0.1438E-01  0.1058E+01
     19.560  0.1032E-01  0.1059E+01
     19.661  0.6103E-02  0.1060E+01
     19.762  0.2919E-02  0.1060E+01
     19.862  0.1096E-02  0.1060E+01
     19.963  0.6727E-03  0.1060E+01
     20.064  0.1799E-02  0.1060E+01
     20.165  0.4586E-02  0.1061E+01
     20.266  0.7724E-02  0.1062E+01
     20.367  0.9184E-02  0.1063E+01
     20.468  0.8854E-02  0.1064E+01
     20.569  0.7375E-02  0.1064E+01
     20.670  0.4776E-02  0.1065E+01
     20.771  0.2115E-02  0.1065E+01
     20.872  0.6495E-03  0.1065E+01
     20.972  0.4133E-03  0.1065E+01
     21.073  0.1069E-02  0.1065E+01
     21.174  0.2235E-02  0.1065E+01
     21.275  0.2927E-02  0.1066E+01
     21.376  0.2415E-02  0.1066E+01
     21.477  0.1437E-02  0.1066E+01
     21.578  0.1105E-02  0.1066E+01
     21.679  0.1386E-02  0.1066E+01
     21.780  0.1445E-02  0.1067E+01
     21.881  0.9638E-03  0.1067E+01
     21.982  0.3962E-03  0.1067E+01
     22.082  0.9990E-04  0.1067E+01
     22.183  0.1542E-04  0.1067E+01
     22.284  0.1456E-05  0.1067E+01
     22.385  0.8386E-07  0.1067E+01
     22.486  0.2944E-08  0.1067E+01
     22.587  0.6286E-10  0.1067E+01
     22.688  0.8153E-12  0.1067E+01
     22.789  0.6415E-14  0.1067E+01
     22.890  0.3051E-16  0.1067E+01
     22.991  0.0000E+00  0.1067E+01
     23.092  0.0000E+00  0.1067E+01
     23.192  0.0000E+00  0.1067E+01
     23.293  0.0000E+00  0.1067E+01
     23.394  0.0000E+00  0.1067E+01
     23.495  0.0000E+00  0.1067E+01
     23.596  0.0000E+00  0.1067E+01
     23.697  0.0000E+00  0.1067E+01
