       N       E                     dE             d eps       ncg     rms          rms(c)
DAV:   1    -0.535219548213E+01   -0.53522E+01   -0.17338E+03  1656   0.307E+02
DAV:   2    -0.101052430119E+02   -0.47530E+01   -0.45610E+01  2480   0.378E+01
DAV:   3    -0.101344820272E+02   -0.29239E-01   -0.29212E-01  1824   0.357E+00
DAV:   4    -0.101345125655E+02   -0.30538E-04   -0.30538E-04  2552   0.988E-02
DAV:   5    -0.101345125821E+02   -0.16584E-07   -0.16388E-07  1696   0.114E-03    0.150E+00
DAV:   6    -0.101261122278E+02    0.84004E-02   -0.17212E-03  1920   0.258E-01    0.937E-01
DAV:   7    -0.101195749825E+02    0.65372E-02   -0.49084E-03  1800   0.455E-01    0.351E-02
DAV:   8    -0.101195534775E+02    0.21505E-04   -0.70018E-05  1032   0.598E-02
   1 F= -.10119553E+02 E0= -.10111328E+02  d E =-.101196E+02
       N       E                     dE             d eps       ncg     rms          rms(c)
DAV:   1    -0.101325221941E+02   -0.12947E-01   -0.31224E-01  2384   0.314E+00    0.343E-01
DAV:   2    -0.101292069502E+02    0.33152E-02   -0.58526E-03  1776   0.563E-01    0.192E-01
DAV:   3    -0.101276366416E+02    0.15703E-02   -0.40296E-03  2224   0.349E-01    0.169E-02
DAV:   4    -0.101276446676E+02   -0.80260E-05   -0.12670E-04   904   0.884E-02
   2 F= -.10127645E+02 E0= -.10119173E+02  d E =-.809119E-02
       N       E                     dE             d eps       ncg     rms          rms(c)
DAV:   1    -0.101313773014E+02   -0.37407E-02   -0.10496E-01  2328   0.181E+00    0.193E-01
DAV:   2    -0.101303266581E+02    0.10506E-02   -0.19009E-03  1800   0.322E-01    0.108E-01
DAV:   3    -0.101298215905E+02    0.50507E-03   -0.12751E-03  1480   0.197E-01    0.889E-03
DAV:   4    -0.101298255817E+02   -0.39912E-05   -0.56630E-05   880   0.586E-02
   3 F= -.10129826E+02 E0= -.10121056E+02  d E =-.102721E-01
       N       E                     dE             d eps       ncg     rms          rms(c)
DAV:   1    -0.101368078901E+02   -0.69863E-02   -0.41293E-01  2272   0.354E+00    0.379E-01
DAV:   2    -0.101326771262E+02    0.41308E-02   -0.75298E-03  1880   0.638E-01    0.212E-01
DAV:   3    -0.101306942438E+02    0.19829E-02   -0.50347E-03  2168   0.388E-01    0.190E-02
DAV:   4    -0.101307037227E+02   -0.94788E-05   -0.15127E-04   896   0.963E-02
   4 F= -.10130704E+02 E0= -.10121411E+02  d E =-.111502E-01
       N       E                     dE             d eps       ncg     rms          rms(c)
DAV:   1    -0.101405165946E+02   -0.98224E-02   -0.26862E-01  2280   0.289E+00    0.304E-01
DAV:   2    -0.101380510652E+02    0.24655E-02   -0.50501E-03  1864   0.518E-01    0.174E-01
DAV:   3    -0.101367431226E+02    0.13079E-02   -0.31329E-03  2104   0.306E-01    0.166E-02
DAV:   4    -0.101367466398E+02   -0.35172E-05   -0.96926E-05   856   0.744E-02
   5 F= -.10136747E+02 E0= -.10128379E+02  d E =-.604292E-02
       N       E                     dE             d eps       ncg     rms          rms(c)
DAV:   1    -0.101391369276E+02   -0.23938E-02   -0.15055E-01  2248   0.215E+00    0.227E-01
DAV:   2    -0.101377898955E+02    0.13470E-02   -0.27679E-03  1880   0.384E-01    0.130E-01
DAV:   3    -0.101370765318E+02    0.71336E-03   -0.16874E-03  1912   0.225E-01    0.124E-02
DAV:   4    -0.101370787804E+02   -0.22485E-05   -0.55423E-05   832   0.562E-02
   6 F= -.10137079E+02 E0= -.10129209E+02  d E =-.637506E-02
       N       E                     dE             d eps       ncg     rms          rms(c)
DAV:   1    -0.101379535272E+02   -0.87700E-03   -0.30311E-02  2232   0.961E-01    0.103E-01
DAV:   2    -0.101376682542E+02    0.28527E-03   -0.56810E-04  1536   0.174E-01
   7 F= -.10137668E+02 E0= -.10129661E+02  d E =-.696453E-02
       N       E                     dE             d eps       ncg     rms          rms(c)
DAV:   1    -0.101374163216E+02    0.53721E-03   -0.18430E-02  2304   0.751E-01    0.858E-02
DAV:   2    -0.101372143355E+02    0.20199E-03   -0.32677E-04  1296   0.130E-01
   8 F= -.10137214E+02 E0= -.10128975E+02  d E =-.651061E-02
       N       E                     dE             d eps       ncg     rms          rms(c)
DAV:   1    -0.101374252870E+02   -0.89654E-05   -0.59654E-03  2168   0.427E-01    0.394E-02
DAV:   2    -0.101373876874E+02    0.37600E-04   -0.12191E-04   840   0.832E-02
   9 F= -.10137388E+02 E0= -.10129273E+02  d E =-.668396E-02
       N       E                     dE             d eps       ncg     rms          rms(c)
DAV:   1    -0.101375139127E+02   -0.88626E-04   -0.20441E-03  2216   0.250E-01    0.288E-02
DAV:   2    -0.101374921738E+02    0.21739E-04   -0.36767E-05   824   0.440E-02
  10 F= -.10137492E+02 E0= -.10129449E+02  d E =-.678845E-02
       N       E                     dE             d eps       ncg     rms          rms(c)
DAV:   1    -0.101375031418E+02    0.10771E-04   -0.13835E-04   896   0.663E-02    0.860E-03
DAV:   2    -0.101375016422E+02    0.14996E-05   -0.44177E-06   792   0.152E-02
  11 F= -.10137502E+02 E0= -.10129477E+02  d E =-.679792E-02
       N       E                     dE             d eps       ncg     rms          rms(c)
DAV:   1    -0.101375112218E+02   -0.80800E-05   -0.10382E-04   912   0.572E-02    0.645E-03
DAV:   2    -0.101375104456E+02    0.77626E-06   -0.34006E-06   792   0.136E-02
  12 F= -.10137510E+02 E0= -.10129499E+02  d E =-.680672E-02
       N       E                     dE             d eps       ncg     rms          rms(c)
DAV:   1    -0.101375125751E+02   -0.13532E-05   -0.13515E-05   792   0.207E-02    0.254E-03
DAV:   2    -0.101375125047E+02    0.70366E-07   -0.53294E-07   792   0.522E-03
  13 F= -.10137513E+02 E0= -.10129506E+02  d E =-.680878E-02
       N       E                     dE             d eps       ncg     rms          rms(c)
DAV:   1    -0.101375134717E+02   -0.89658E-06   -0.37300E-06   792   0.108E-02    0.130E-03
DAV:   2    -0.101375134694E+02    0.22132E-08   -0.14012E-07   792   0.268E-03
  14 F= -.10137513E+02 E0= -.10129509E+02  d E =-.680975E-02
       N       E                     dE             d eps       ncg     rms          rms(c)
DAV:   1    -0.101375138976E+02   -0.42599E-06   -0.92062E-07   792   0.538E-03    0.647E-04
DAV:   2    -0.101375139061E+02   -0.84387E-08   -0.34498E-08   792   0.132E-03
  15 F= -.10137514E+02 E0= -.10129511E+02  d E =-.681018E-02
