unknown system                          
   1.00000000000000     
    -2.386499    2.386499    1.367225
     2.386499   -2.386499    1.367225
     2.386499    2.386499   -1.367225
   Si
     2
Direct
  0.250000  0.750000  0.500000
  0.000000  0.000000  0.000000
 
   36   36   36
 -5.2635     -4.3301     -1.7670      1.7972      5.5504      8.7401      10.861      11.737      11.505      10.518    
  9.2141      7.9016      6.6980      5.6714      4.8524      4.2426      3.8276      3.5886      3.5107      3.5886    
  3.8276      4.2426      4.8524      5.6714      6.6980      7.9016      9.2141      10.518      11.505      11.737    
  10.861      8.7401      5.5504      1.7972     -1.7671     -4.3302     -4.3302     -4.8223     -3.4948     -.68662    
  2.9188      6.5161      9.4104      11.180      11.731      11.262      10.155      8.8360      7.5487      6.3909    
  5.4208      4.6603      4.1058      3.7406      3.5465      3.5106      3.6301      3.9130      4.3755      5.0361    
  5.9067      6.9799      8.2172      9.5419      10.813      11.676      11.701      10.576      8.2321      4.9181    
  1.2016     -2.1412     -1.7671     -3.4948     -3.5473     -1.9163     0.97912      4.4369      7.6959      10.148    
  11.468      11.648      10.937      9.7329      8.4197      7.1706      6.0697      5.1639      4.4666      3.9695    
  3.6548      3.5052      3.5102      3.6698      3.9939      4.4998      5.2049      6.1181      7.2263      8.4842    
  9.8088      11.035      11.785      11.654      10.381      7.9586      4.6982      1.2016      1.7972     -.68663    
 -1.9163     -1.5777     0.23315      3.0465      6.1791      8.9470      10.849      11.664      11.463      10.533    
  9.2698      7.9786      6.7801      5.7453      4.9092      4.2776      3.8382      3.5729      3.4661      3.5098    
  3.7065      4.0677      4.6110      5.3526      6.2976      7.4282      8.6932      10.006      11.182      11.844    
  11.623      10.311      7.9586      4.9181      5.5504      2.9188     0.97911     0.23315     0.87478      2.7243    
  5.2944      7.9548      10.124      11.417      11.719      11.163      10.063      8.7812      7.5266      6.3900    
  5.4282      4.6649      4.0990      3.7158      3.4975      3.4305      3.5096      3.7391      4.1319      4.7052    
  5.4735      6.4385      7.5779      8.8368      10.126      11.255      11.862      11.623      10.381      8.2321    
  8.7401      6.5161      4.4369      3.0465      2.7243      3.5553      5.3029      7.4953      9.5823      11.099    
  11.781      11.603      10.754      9.5494      8.2817      7.0779      6.0125      5.1280      4.4379      3.9358    
  3.6056      3.4307      3.3997      3.5096      3.7666      4.1843      4.7790      5.5632      6.5354      7.6699    
  8.9098      10.167      11.255      11.844      11.654      10.576      10.861      9.4104      7.6959      6.1791    
  5.2944      5.3029      6.2010      7.7251      9.4468      10.914      11.783      11.900      11.319      10.261    
  9.0209      7.7869      6.6466      5.6587      4.8528      4.2341      3.7921      3.5105      3.3742      3.3743    
  3.5099      3.7883      4.2231      4.8297      5.6184      6.5848      7.7010      8.9098      10.126      11.182    
  11.785      11.701      11.737      11.180      10.148      8.9470      7.9548      7.4953      7.7251      8.5775    
  9.7900      10.998      11.855      12.133      11.775      10.895      9.7261      8.4964      7.3129      6.2455    
  5.3383      4.6097      4.0581      3.6709      3.4323      3.3293      3.3550      3.5103      3.8032      4.2469    
  4.8556      5.6370      6.5848      7.6699      8.8368      10.006      11.035      11.676      11.505      11.731    
  11.468      10.849      10.124      9.5823      9.4468      9.7900      10.509      11.364      12.067      12.374    
  12.160      11.446      10.384      9.1894      7.9946      6.8752      5.8866      5.0598      4.4041      3.9136    
  3.5747      3.3727      3.2968      3.3421      3.5106      3.8108      4.2550      4.8556      5.6184      6.5354    
  7.5779      8.6932      9.8088      10.813      10.518      11.262      11.648      11.664      11.417      11.099    
  10.914      10.998      11.364      11.895      12.392      12.642      12.498      11.918      10.980      9.8512    
  8.6761      7.5344      6.4883      5.5798      4.8296      4.2403      3.8032      3.5049      3.3325      3.2771    
  3.3356      3.5107      3.8108      4.2469      4.8297      5.5632      6.4385      7.4282      8.4842      9.5419    
  9.2141      10.155      10.937      11.463      11.719      11.781      11.783      11.855      12.067      12.392    
  12.718      12.894      12.780      12.307      11.498      10.465      9.3418      8.2092      7.1332      6.1643    
  5.3333      4.6528      4.1212      3.7287      3.4627      3.3123      3.2706      3.3356      3.5106      3.8032    
  4.2231      4.7790      5.4735      6.2976      7.2263      8.2172      7.9016      8.8360      9.7329      10.533    
  11.163      11.603      11.900      12.133      12.374      12.642      12.894      13.034      12.956      12.586    
  11.914      11.008      9.9719      8.8836      7.8096      6.8060      5.9130      5.1531      4.5331      4.0490    
  3.6911      3.4485      3.3123      3.2771      3.3421      3.5103      3.7883      4.1843      4.7052      5.3526    
  6.1181      6.9799      6.6980      7.5487      8.4197      9.2698      10.063      10.754      11.319      11.775    
  12.160      12.498      12.780      12.956      12.953      12.707      12.194      11.447      10.540      9.5360    
  8.5012      7.4948      6.5643      5.7418      5.0434      4.4727      4.0248      3.6911      3.4627      3.3325    
  3.2968      3.3550      3.5099      3.7666      4.1319      4.6110      5.2049      5.9067      5.6714      6.3909    
  7.1706      7.9786      8.7812      9.5494      10.261      10.895      11.446      11.918      12.307      12.586    
  12.707      12.621      12.297      11.747      11.010      10.137      9.1847      8.2141      7.2778      6.4162    
  5.6550      5.0065      4.4727      4.0490      3.7287      3.5049      3.3727      3.3293      3.3743      3.5096    
  3.7391      4.0677      4.4998      5.0361      4.8524      5.4208      6.0697      6.7801      7.5266      8.2817    
  9.0209      9.7261      10.384      10.980      11.498      11.914      12.194      12.297      12.192      11.871    
  11.346      10.649      9.8281      8.9390      8.0364      7.1672      6.3663      5.6550      5.0434      4.5331    
  4.1212      3.8032      3.5747      3.4323      3.3742      3.3997      3.5096      3.7065      3.9939      4.3755    
  4.2426      4.6603      5.1639      5.7453      6.3900      7.0779      7.7869      8.4964      9.1894      9.8512    
  10.465      11.008      11.447      11.747      11.871      11.795      11.511      11.033      10.392      9.6346    
  8.8126      7.9762      7.1672      6.4162      5.7418      5.1531      4.6528      4.2403      3.9136      3.6709    
  3.5105      3.4307      3.4305      3.5098      3.6698      3.9130      3.8276      4.1058      4.4666      4.9092    
  5.4282      6.0125      6.6466      7.3129      7.9946      8.6761      9.3418      9.9719      10.540      11.010    
  11.346      11.511      11.482      11.252      10.834      10.259      9.5687      8.8126      8.0364      7.2778    
  6.5643      5.9130      5.3333      4.8296      4.4041      4.0581      3.7921      3.6056      3.4975      3.4661    
  3.5102      3.6301      3.5886      3.7406      3.9695      4.2776      4.6649      5.1280      5.6587      6.2455    
  6.8752      7.5344      8.2092      8.8836      9.5360      10.137      10.649      11.033      11.252      11.283    
  11.117      10.766      10.259      9.6346      8.9390      8.2141      7.4948      6.8060      6.1643      5.5798    
  5.0598      4.6097      4.2341      3.9358      3.7158      3.5729      3.5052      3.5106      3.5107      3.5465    
  3.6548      3.8382      4.0990      4.4379      4.8528      5.3383      5.8866      6.4883      7.1332      7.8096    
  8.5012      9.1847      9.8281      10.392      10.834      11.117      11.214      11.117      10.834      10.392    
  9.8281      9.1847      8.5012      7.8096      7.1332      6.4883      5.8866      5.3383      4.8528      4.4379    
  4.0990      3.8382      3.6548      3.5465      3.5886      3.5106      3.5052      3.5729      3.7158      3.9358    
  4.2341      4.6097      5.0598      5.5798      6.1643      6.8060      7.4948      8.2141      8.9390      9.6346    
  10.259      10.766      11.117      11.283      11.252      11.033      10.649      10.137      9.5360      8.8836    
  8.2092      7.5344      6.8752      6.2455      5.6587      5.1280      4.6649      4.2776      3.9695      3.7406    
  3.8276      3.6301      3.5102      3.4661      3.4975      3.6056      3.7921      4.0582      4.4041      4.8296    
  5.3333      5.9131      6.5643      7.2778      8.0364      8.8126      9.5687      10.259      10.834      11.252    
  11.482      11.511      11.346      11.010      10.540      9.9719      9.3418      8.6761      7.9946      7.3129    
  6.6466      6.0125      5.4282      4.9092      4.4666      4.1058      4.2426      3.9130      3.6698      3.5098    
  3.4305      3.4307      3.5105      3.6709      3.9136      4.2403      4.6528      5.1531      5.7418      6.4162    
  7.1672      7.9762      8.8126      9.6346      10.392      11.033      11.511      11.795      11.871      11.747    
  11.447      11.008      10.465      9.8512      9.1894      8.4964      7.7869      7.0779      6.3900      5.7453    
  5.1639      4.6603      4.8524      4.3755      3.9939      3.7065      3.5096      3.3996      3.3742      3.4323    
  3.5747      3.8032      4.1212      4.5331      5.0434      5.6550      6.3663      7.1672      8.0364      8.9390    
  9.8281      10.649      11.346      11.871      12.192      12.297      12.194      11.914      11.498      10.980    
  10.384      9.7261      9.0209      8.2817      7.5266      6.7801      6.0697      5.4208      5.6714      5.0361    
  4.4997      4.0677      3.7391      3.5096      3.3743      3.3293      3.3727      3.5049      3.7287      4.0490    
  4.4727      5.0066      5.6550      6.4162      7.2778      8.2141      9.1847      10.137      11.010      11.747    
  12.297      12.621      12.707      12.586      12.307      11.918      11.446      10.895      10.261      9.5494    
  8.7812      7.9786      7.1706      6.3909      6.6980      5.9067      5.2049      4.6110      4.1319      3.7666    
  3.5098      3.3550      3.2968      3.3325      3.4627      3.6912      4.0248      4.4727      5.0434      5.7418    
  6.5643      7.4948      8.5012      9.5360      10.540      11.447      12.194      12.707      12.953      12.956    
  12.780      12.498      12.160      11.775      11.319      10.754      10.063      9.2698      8.4197      7.5487    
  7.9016      6.9799      6.1181      5.3526      4.7052      4.1843      3.7882      3.5102      3.3421      3.2771    
  3.3123      3.4485      3.6912      4.0490      4.5331      5.1531      5.9131      6.8060      7.8096      8.8836    
  9.9719      11.008      11.914      12.586      12.956      13.034      12.894      12.642      12.374      12.133    
  11.900      11.603      11.163      10.533      9.7329      8.8360      9.2141      8.2172      7.2263      6.2976    
  5.4735      4.7790      4.2231      3.8031      3.5106      3.3356      3.2706      3.3123      3.4627      3.7287    
  4.1212      4.6528      5.3333      6.1643      7.1332      8.2092      9.3418      10.465      11.498      12.307    
  12.780      12.894      12.718      12.392      12.067      11.855      11.783      11.781      11.719      11.463    
  10.937      10.155      10.518      9.5419      8.4842      7.4282      6.4385      5.5632      4.8298      4.2470    
  3.8108      3.5107      3.3356      3.2771      3.3325      3.5049      3.8032      4.2403      4.8296      5.5798    
  6.4883      7.5344      8.6761      9.8512      10.980      11.918      12.498      12.642      12.392      11.895    
  11.364      10.998      10.914      11.099      11.417      11.664      11.648      11.262      11.505      10.813    
  9.8088      8.6932      7.5779      6.5354      5.6184      4.8556      4.2550      3.8108      3.5106      3.3421    
  3.2968      3.3727      3.5747      3.9136      4.4041      5.0598      5.8866      6.8752      7.9946      9.1894    
  10.384      11.446      12.160      12.374      12.067      11.364      10.509      9.7900      9.4468      9.5823    
  10.124      10.849      11.468      11.731      11.737      11.676      11.035      10.006      8.8368      7.6700    
  6.5848      5.6370      4.8556      4.2470      3.8031      3.5102      3.3550      3.3293      3.4323      3.6709    
  4.0582      4.6097      5.3383      6.2455      7.3129      8.4964      9.7261      10.895      11.775      12.133    
  11.855      10.998      9.7900      8.5775      7.7251      7.4953      7.9548      8.9470      10.148      11.180    
  10.861      11.701      11.785      11.182      10.126      8.9099      7.7010      6.5848      5.6184      4.8298    
  4.2231      3.7882      3.5098      3.3743      3.3742      3.5105      3.7921      4.2341      4.8528      5.6587    
  6.6466      7.7869      9.0209      10.261      11.319      11.900      11.783      10.914      9.4468      7.7251    
  6.2010      5.3029      5.2944      6.1791      7.6959      9.4104      8.7401      10.576      11.654      11.844    
  11.255      10.167      8.9099      7.6700      6.5354      5.5632      4.7790      4.1843      3.7666      3.5096    
  3.3996      3.4307      3.6056      3.9358      4.4379      5.1280      6.0125      7.0779      8.2817      9.5494    
  10.754      11.603      11.781      11.099      9.5823      7.4953      5.3029      3.5553      2.7243      3.0465    
  4.4369      6.5161      5.5504      8.2321      10.381      11.623      11.862      11.255      10.126      8.8368    
  7.5779      6.4385      5.4735      4.7052      4.1319      3.7391      3.5096      3.4305      3.4975      3.7158    
  4.0990      4.6649      5.4282      6.3900      7.5266      8.7812      10.063      11.163      11.719      11.417    
  10.124      7.9548      5.2944      2.7243     0.87478     0.23315     0.97912      2.9188      1.7972      4.9181    
  7.9587      10.311      11.623      11.844      11.182      10.006      8.6932      7.4282      6.2976      5.3526    
  4.6110      4.0677      3.7065      3.5098      3.4661      3.5729      3.8382      4.2776      4.9092      5.7453    
  6.7801      7.9786      9.2698      10.533      11.463      11.664      10.849      8.9470      6.1791      3.0465    
 0.23315     -1.5777     -1.9163     -.68662     -1.7670      1.2016      4.6982      7.9587      10.381      11.654    
  11.785      11.035      9.8088      8.4842      7.2263      6.1181      5.2049      4.4997      3.9939      3.6698    
  3.5102      3.5052      3.6548      3.9695      4.4666      5.1639      6.0697      7.1706      8.4197      9.7329    
  10.937      11.648      11.468      10.148      7.6959      4.4369     0.97911     -1.9163     -3.5473     -3.4948    
 -4.3301     -2.1412      1.2016      4.9181      8.2321      10.576      11.701      11.676      10.813      9.5419    
  8.2172      6.9799      5.9067      5.0361      4.3755      3.9130      3.6301      3.5106      3.5465      3.7406    
  4.1058      4.6603      5.4208      6.3909      7.5487      8.8360      10.155      11.262      11.731      11.180    
  9.4104      6.5161      2.9188     -.68663     -3.4948     -4.8223     -4.3302     -3.6348     -1.3550      1.9464    
  5.5055      8.5890      10.682      11.581      11.391      10.437      9.1439      7.8308      6.6197      5.5810    
  4.7476      4.1222      3.6907      3.4337      3.3356      3.3894      3.5994      3.9792      4.5479      5.3219    
  6.3036      7.4686      8.7556      10.062      11.125      11.522      10.892      9.0718      6.1903      2.6957    
 -.71502     -3.2659     -3.6348     -4.3302     -3.2659     -.71502      2.6957      6.1903      9.0718      10.892    
  11.522      11.125      10.062      8.7556      7.4686      6.3036      5.3219      4.5479      3.9792      3.5994    
  3.3894      3.3356      3.4337      3.6907      4.1222      4.7476      5.5810      6.6197      7.8307      9.1438    
  10.437      11.391      11.581      10.682      8.5890      5.5055      1.9464     -1.3550     -1.2848     -3.1908    
 -3.4948     -2.1254     0.56212      3.9073      7.1577      9.6830      11.120      11.418      10.797      9.6370    
  8.3354      7.0863      5.9780      5.0610      4.3515      3.8421      3.5149      3.3520      3.3420      3.4837    
  3.7862      4.2667      4.9441      5.8298      6.9154      8.1607      9.4881      10.753      11.602      11.627    
  10.544      8.3113      5.1937      1.7493      2.1291     -.51173     -1.9833     -1.9163     -.33959      2.3317    
  5.4377      8.2825      10.327      11.305      11.242      10.404      9.1768      7.8956      6.6959      5.6534    
  4.8069      4.1644      3.7148      3.4397      3.3227      3.3550      3.5380      3.8831      4.4080      5.1308    
  6.0596      7.1805      8.4473      9.7773      11.006      11.768      11.683      10.517      8.2852      5.2976    
  5.8069      3.0425     0.87740     -.14501     0.23312      1.8961      4.3970      7.1097      9.4232      10.905    
  11.390      10.974      9.9527      8.6966      7.4491      6.3096      5.3397      4.5670      3.9922      3.6012    
  3.3761      3.3025      3.3743      3.5953      3.9784      4.5416      5.3012      6.2621      7.4055      8.6804    
  10.001      11.192      11.893      11.763      10.619      8.5203      8.9880      6.6606      4.3846      2.7287    
  2.1250      2.7243      4.3445      6.5371      8.7389      10.443      11.333      11.336      10.609      9.4603    
  8.2094      7.0090      5.9388      5.0462      4.3480      3.8393      3.5042      3.3258      3.2922      3.3997    
  3.6541      4.0694      4.6630      5.4494      6.4300      7.5820      8.8514      10.152      11.306      11.978    
  11.868      10.839      11.147      9.6267      7.7555      6.0033      4.8416      4.5892      5.3029      6.7599    
  8.5386      10.160      11.233      11.551      11.127      10.161      8.9524      7.7287      6.5878      5.5937    
  4.7804      4.1554      3.7094      3.4262      3.2903      3.2922      3.4306      3.7128      4.1530      4.7680    
  5.5700      6.5569      7.7033      8.9534      10.223      11.346      12.017      11.983      12.084      11.492    
  10.350      8.9605      7.7201      6.9970      7.0041      7.7250      8.9226      10.225      11.251      11.723    
  11.538      10.777      9.6614      8.4481      7.2686      6.1975      5.2836      4.5488      3.9934      3.6054    
  3.3688      3.2703      3.3025      3.4661      3.7695      4.2266      4.8530      5.6583      6.6379      7.7642    
  8.9819      10.211      11.305      12.000      11.913      12.138      11.813      11.060      10.135      9.3550    
  8.9870      9.1539      9.7900      10.668      11.480      11.947      11.896      11.311      10.323      9.1510    
  7.9638      6.8432      5.8490      5.0161      4.3565      3.8653      3.5291      3.3331      3.2660      3.3227    
  3.5052      3.8224      4.2877      4.9148      5.7110      6.6695      7.7619      8.9348      10.114      11.180    
  10.967      11.740      12.110      12.050      11.661      11.150      10.751      10.643      10.878      11.364    
  11.902      12.257      12.244      11.783      10.924      9.8239      8.6577      7.5165      6.4659      5.5518    
  4.7974      4.2072      3.7731      3.4816      3.3195      3.2774      3.3521      3.5465      3.8696      4.3338    
  4.9508      5.7257      6.6500      7.6958      8.8131      9.9344      9.6781      10.670      11.474      11.975    
  12.149      12.075      11.904      11.796      11.856      12.087      12.392      12.609      12.578      12.195    
  11.455      10.451      9.3349      8.2028      7.1229      6.1486      5.3136      4.6322      4.1037      3.7185    
  3.4636      3.3278      3.3037      3.3894      3.5886      3.9096      4.3634      4.9596      5.7015      6.5797    
  7.5678      8.6206      8.3642      9.3537      10.295      11.112      11.714      12.078      12.253      12.339    
  12.433      12.585      12.768      12.894      12.845      12.524      11.897      11.011      9.9761      8.8857    
  7.8070      6.7980      5.9012      5.1405      4.5240      4.0478      3.7020      3.4751      3.3576      3.3442    
  3.4337      3.6301      3.9408      4.3751      4.9406      5.6391      6.4611      7.3827      7.1474      8.0533    
  8.9723      9.8579      10.664      11.330      11.828      12.182      12.446      12.667      12.857      12.978    
  12.956      12.716      12.216      11.470      10.554      9.5431      8.5012      7.4886      6.5542      5.7313    
  5.0370      4.4751      4.0405      3.7239      3.5156      3.4082      3.3976      3.4837      3.6698      3.9622    
  4.3685      4.8944      5.5406      6.2986      6.0987      6.8712      7.6994      8.5472      9.3758      10.151    
  10.842      11.420      11.887      12.261      12.556      12.757      12.825      12.707      12.363      11.791    
  11.034      10.145      9.1819      8.2031      7.2623      6.4005      5.6442      5.0058      4.4867      4.0820    
  3.7838      3.5844      3.4784      3.4629      3.5380      3.7065      3.9731      4.3437      4.8226      5.4100    
  5.2524      5.8693      6.5646      7.3158      8.0933      8.8652      9.6031      10.286      10.898      11.425    
  11.862      12.198      12.406      12.451      12.297      11.934      11.376      10.655      9.8168      8.9163    
  8.0078      7.1384      6.3431      5.6432      5.0482      4.5592      4.1719      3.8807      3.6803      3.5668    
  3.5385      3.5953      3.7391      3.9731      4.3017      4.7280      4.6143      5.0741      5.6193      6.2393    
  6.9161      7.6259      8.3429      9.0434      9.7087      10.325      10.877      11.349      11.714      11.942    
  12.002      11.871      11.543      11.031      10.367      9.5935      8.7636      7.9263      7.1234      6.3849    
  5.7291      5.1642      4.6915      4.3089      4.0132      3.8015      3.6717      3.6227      3.6541      3.7666    
  3.9622      4.2439      4.1725      4.4859      4.8819      5.3582      5.9069      6.5140      7.1609      7.8269    
  8.4925      9.1413      9.7585      10.327      10.826      11.224      11.491      11.593      11.511      11.239    
  10.789      10.193      9.4922      8.7342      7.9641      7.2192      6.5261      5.9010      5.3518      4.8816    
  4.4907      4.1789      3.9459      3.7910      3.7136      3.7128      3.7882      3.9408      3.9096      4.0903    
  4.3475      4.6829      5.0952      5.5786      6.1228      6.7134      7.3346      7.9708      8.6079      9.2310    
  9.8213      10.353      10.795      11.112      11.272      11.252      11.048      10.671      10.149      9.5212    
  8.8317      8.1214      7.4240      6.7635      6.1551      5.6075      5.1258      4.7139      4.3747      4.1104    
  3.9218      3.8086      3.7695      3.8031      3.8107      3.8696      4.0001      4.2043      4.4840      4.8387    
  5.2646      5.7543      6.2974      6.8825      7.4979      8.1315      8.7686      9.3886      9.9637      10.459    
  10.837      11.064      11.117      10.988      10.687      10.239      9.6810      9.0532      8.3932      7.7317    
  7.0908      6.4853      5.9254      5.4191      4.9739      4.5964      4.2913      4.0609      3.9051      3.8224    
  3.8696      3.8107      3.8224      3.9051      4.0609      4.2913      4.5964      4.9739      5.4191      5.9254    
  6.4853      7.0908      7.7317      8.3932      9.0532      9.6810      10.239      10.687      10.988      11.117    
  11.064      10.837      10.459      9.9637      9.3886      8.7686      8.1315      7.4979      6.8825      6.2975    
  5.7543      5.2647      4.8387      4.4840      4.2043      4.0001      4.0903      3.9096      3.8032      3.7695    
  3.8086      3.9218      4.1104      4.3747      4.7139      5.1258      5.6075      6.1551      6.7635      7.4240    
  8.1214      8.8317      9.5212      10.149      10.671      11.048      11.252      11.272      11.112      10.795    
  10.353      9.8213      9.2310      8.6080      7.9708      7.3346      6.7134      6.1228      5.5786      5.0952    
  4.6829      4.3475      4.4859      4.1725      3.9408      3.7883      3.7128      3.7136      3.7910      3.9459    
  4.1789      4.4907      4.8816      5.3518      5.9010      6.5261      7.2192      7.9641      8.7342      9.4922    
  10.193      10.789      11.239      11.511      11.593      11.491      11.224      10.826      10.327      9.7585    
  9.1413      8.4925      7.8269      7.1609      6.5141      5.9069      5.3582      4.8819      5.0741      4.6143    
  4.2439      3.9623      3.7667      3.6541      3.6227      3.6717      3.8015      4.0132      4.3089      4.6915    
  5.1642      5.7291      6.3849      7.1234      7.9263      8.7636      9.5935      10.367      11.031      11.543    
  11.871      12.002      11.942      11.714      11.349      10.877      10.325      9.7087      9.0434      8.3429    
  7.6259      6.9161      6.2393      5.6193      5.8693      5.2524      4.7280      4.3017      3.9731      3.7391    
  3.5953      3.5385      3.5668      3.6803      3.8807      4.1719      4.5592      5.0482      5.6432      6.3431    
  7.1384      8.0078      8.9163      9.8168      10.655      11.376      11.934      12.297      12.451      12.406    
  12.198      11.862      11.425      10.898      10.286      9.6031      8.8652      8.0932      7.3158      6.5646    
  6.8712      6.0987      5.4100      4.8226      4.3437      3.9731      3.7065      3.5380      3.4629      3.4784    
  3.5844      3.7838      4.0820      4.4867      5.0058      5.6442      6.4005      7.2623      8.2031      9.1819    
  10.145      11.034      11.791      12.363      12.707      12.825      12.757      12.556      12.261      11.887    
  11.420      10.842      10.151      9.3758      8.5472      7.6994      8.0532      7.1474      6.2986      5.5406    
  4.8944      4.3685      3.9622      3.6698      3.4837      3.3976      3.4082      3.5156      3.7239      4.0405    
  4.4751      5.0370      5.7313      6.5542      7.4886      8.5012      9.5431      10.554      11.470      12.216    
  12.716      12.956      12.978      12.857      12.667      12.446      12.182      11.828      11.330      10.664    
  9.8579      8.9723      9.3537      8.3642      7.3827      6.4611      5.6391      4.9406      4.3751      3.9408    
  3.6301      3.4337      3.3442      3.3576      3.4751      3.7020      4.0478      4.5240      5.1405      5.9012    
  6.7981      7.8070      8.8857      9.9761      11.011      11.897      12.524      12.845      12.894      12.768    
  12.585      12.433      12.339      12.253      12.078      11.714      11.112      10.295      10.670      9.6781    
  8.6206      7.5678      6.5797      5.7015      4.9596      4.3634      3.9096      3.5886      3.3894      3.3037    
  3.3278      3.4636      3.7185      4.1037      4.6322      5.3136      6.1486      7.1229      8.2028      9.3349    
  10.451      11.455      12.195      12.578      12.609      12.392      12.087      11.856      11.796      11.904    
  12.075      12.149      11.975      11.474      11.740      10.967      9.9344      8.8131      7.6957      6.6500    
  5.7257      4.9508      4.3338      3.8696      3.5465      3.3520      3.2774      3.3194      3.4816      3.7732    
  4.2072      4.7974      5.5518      6.4659      7.5165      8.6577      9.8239      10.924      11.783      12.244    
  12.257      11.902      11.364      10.878      10.643      10.751      11.150      11.661      12.050      12.110    
  12.138      11.913      11.180      10.114      8.9348      7.7619      6.6695      5.7110      4.9148      4.2876    
  3.8223      3.5052      3.3227      3.2660      3.3331      3.5291      3.8653      4.3565      5.0161      5.8490    
  6.8432      7.9638      9.1510      10.323      11.311      11.896      11.947      11.480      10.668      9.7900    
  9.1540      8.9870      9.3550      10.135      11.060      11.813      11.492      12.084      12.000      11.305    
  10.211      8.9819      7.7642      6.6379      5.6583      4.8530      4.2266      3.7695      3.4661      3.3025    
  3.2703      3.3688      3.6054      3.9934      4.5488      5.2836      6.1975      7.2686      8.4481      9.6614    
  10.777      11.538      11.723      11.251      10.225      8.9227      7.7251      7.0042      6.9970      7.7201    
  8.9605      10.350      9.6267      11.147      11.983      12.017      11.346      10.223      8.9534      7.7033    
  6.5570      5.5700      4.7680      4.1530      3.7128      3.4305      3.2922      3.2903      3.4262      3.7094    
  4.1554      4.7804      5.5937      6.5878      7.7287      8.9524      10.161      11.127      11.551      11.233    
  10.160      8.5386      6.7599      5.3029      4.5892      4.8416      6.0034      7.7555      6.6606      8.9880    