unknown system                          
   1.00000000000000     
    -2.303250    2.303250    1.478556
     2.303250   -2.303250    1.478556
     2.303250    2.303250   -1.478556
   Si
     2
Direct
  0.250000  0.750000  0.500000
 -0.000000  0.000000 -0.000000
 
   36   36   36
 -.55082452876E+01 -.45961011314E+01 -.20749861690E+01 0.14790472123E+01 0.53080080043E+01
 0.86857466103E+01 0.11090839927E+02 0.12295020434E+02 0.12363132751E+02 0.11584931629E+02
 0.10365889780E+02 0.90639406455E+01 0.78292754912E+01 0.67437070229E+01 0.58541685445E+01
 0.51769650761E+01 0.47080955759E+01 0.44348201379E+01 0.43452880527E+01 0.44348202055E+01
 0.47081004985E+01 0.51769731931E+01 0.58541726416E+01 0.67437068015E+01 0.78292773934E+01
 0.90639450754E+01 0.10365890379E+02 0.11584927659E+02 0.12363130474E+02 0.12295021634E+02
 0.11090840315E+02 0.86857457403E+01 0.53080094361E+01 0.14790489992E+01 -.20749894458E+01
 -.45961068927E+01 -.45961068927E+01 -.49066560354E+01 -.34598223477E+01 -.60178621038E+00
 0.30187373931E+01 0.66475224173E+01 0.96287659460E+01 0.11548854955E+02 0.12290914107E+02
 0.12007332877E+02 0.11035075601E+02 0.97785684433E+01 0.85119870267E+01 0.73437770156E+01
 0.63421775746E+01 0.55420827297E+01 0.49516965842E+01 0.45633641879E+01 0.43643398310E+01
 0.43451712506E+01 0.45046481650E+01 0.48506362405E+01 0.53965894471E+01 0.61541102199E+01
 0.71223544685E+01 0.82761955082E+01 0.95572002472E+01 0.10871540279E+02 0.12010579589E+02
 0.12576066656E+02 0.12189068224E+02 0.10625995145E+02 0.79158955013E+01 0.43863599278E+01
 0.63357422828E+00 -.25960700597E+01 -.20749894458E+01 -.34598262203E+01 -.32028700721E+01
 -.13778634080E+01 0.15740182974E+01 0.49850347015E+01 0.81586543629E+01 0.10548900673E+02
 0.11868073260E+02 0.12108381333E+02 0.11492610309E+02 0.10379837505E+02 0.91315231531E+01
 0.79226445122E+01 0.68386461812E+01 0.59330387067E+01 0.52291886442E+01 0.47285456401E+01
 0.44212085298E+01 0.42954871824E+01 0.43448732172E+01 0.45715897342E+01 0.49861247372E+01
 0.56026241879E+01 0.64305048181E+01 0.74632483987E+01 0.86669423858E+01 0.99732386951E+01
 0.11275160598E+02 0.12311209165E+02 0.12682083427E+02 0.12055411164E+02 0.10283703257E+02
 0.74839837274E+01 0.40579711167E+01 0.63357422828E+00 0.14790489992E+01 -.60178776869E+00
 -.13778642376E+01 -.67699203645E+00 0.13114969792E+01 0.40994022021E+01 0.70538518443E+01
 0.95794997714E+01 0.11263396820E+02 0.11945405037E+02 0.11711789336E+02 0.10831051906E+02
 0.96556123693E+01 0.84490825944E+01 0.73185282002E+01 0.63328241127E+01 0.55309186596E+01
 0.49260722247E+01 0.45147143812E+01 0.42861158500E+01 0.42304989287E+01 0.43445345805E+01
 0.46335409739E+01 0.51098801265E+01 0.57874542509E+01 0.66726420371E+01 0.77529285143E+01
 0.89864436237E+01 0.10297325810E+02 0.11565231064E+02 0.12498247666E+02 0.12723293038E+02
 0.11967174352E+02 0.10158131390E+02 0.74839837274E+01 0.43863599278E+01 0.53080094361E+01
 0.30187376722E+01 0.15740188292E+01 0.13114992106E+01 0.22738570581E+01 0.41961100678E+01
 0.65935247541E+01 0.89128580755E+01 0.10686820715E+02 0.11640666165E+02 0.11728902982E+02
 0.11107833480E+02 0.10063566971E+02 0.88971219916E+01 0.77570153564E+01 0.67218816563E+01
 0.58439289988E+01 0.51489082593E+01 0.46420153935E+01 0.43165119657E+01 0.41620883277E+01
 0.41714346908E+01 0.43443148239E+01 0.46885666286E+01 0.52175898501E+01 0.59441878458E+01
 0.68711386661E+01 0.79801453935E+01 0.92228802051E+01 0.10518866296E+02 0.11738652709E+02
 0.12586710612E+02 0.12732856932E+02 0.11967174352E+02 0.10283703257E+02 0.79158955013E+01
 0.86857457403E+01 0.66475212299E+01 0.49850334527E+01 0.40994044101E+01 0.41961143358E+01
 0.52197062524E+01 0.68744812525E+01 0.87228847852E+01 0.10320442558E+02 0.11336211006E+02
 0.11622870419E+02 0.11226305482E+02 0.10344376112E+02 0.92496810709E+01 0.81331536759E+01
 0.70805834733E+01 0.61530368042E+01 0.53872282480E+01 0.47979567867E+01 0.43846610086E+01
 0.41391548827E+01 0.40524931882E+01 0.41200499046E+01 0.43443174137E+01 0.47349327643E+01
 0.53054983534E+01 0.60670124731E+01 0.70184194529E+01 0.81363448949E+01 0.93679614093E+01
 0.10631211867E+02 0.11796204580E+02 0.12586710612E+02 0.12723293038E+02 0.12055411164E+02
 0.10625995145E+02 0.11090840315E+02 0.96287655074E+01 0.81586512145E+01 0.70538495521E+01
 0.65935276850E+01 0.68744860016E+01 0.77815285187E+01 0.90292799519E+01 0.10257690680E+02
 0.11142350714E+02 0.11480468307E+02 0.11230016207E+02 0.10499607862E+02 0.94997564545E+01
 0.84325812470E+01 0.73920259990E+01 0.64427705868E+01 0.56292697879E+01 0.49750358862E+01
 0.44866106676E+01 0.41599081403E+01 0.39866988008E+01 0.39599789325E+01 0.40777061421E+01
 0.43445415118E+01 0.47711451388E+01 0.53705515021E+01 0.61514336122E+01 0.71089908178E+01
 0.82158499192E+01 0.94168488611E+01 0.10631211867E+02 0.11738652709E+02 0.12498247666E+02
 0.12682083427E+02 0.12189068224E+02 0.12295021634E+02 0.11548857770E+02 0.10548900971E+02
 0.95794959803E+01 0.89128554971E+01 0.87228873973E+01 0.90292837476E+01 0.96943218753E+01
 0.10473545629E+02 0.11098786566E+02 0.11360995035E+02 0.11165557845E+02 0.10547569496E+02
 0.96488009298E+01 0.86484043043E+01 0.76442065116E+01 0.66996349195E+01 0.58629568375E+01
 0.51641840839E+01 0.46165585035E+01 0.42210696429E+01 0.39720077106E+01 0.38620904947E+01
 0.38864712257E+01 0.40453464484E+01 0.43448826882E+01 0.47960009769E+01 0.54105006831E+01
 0.61944092790E+01 0.71395479888E+01 0.82158499192E+01 0.93679614093E+01 0.10518866296E+02
 0.11565231064E+02 0.12311209165E+02 0.12576066656E+02 0.12363130474E+02 0.12290915666E+02
 0.11868077456E+02 0.11263397960E+02 0.10686817632E+02 0.10320440431E+02 0.10257692263E+02
 0.10473547643E+02 0.10837507466E+02 0.11163259322E+02 0.11274235385E+02 0.11060462133E+02
 0.10509146990E+02 0.97029405054E+01 0.87799801575E+01 0.78307782418E+01 0.69139069641E+01
 0.60777961714E+01 0.53561900759E+01 0.47676256871E+01 0.43181210228E+01 0.40054813244E+01
 0.38238008788E+01 0.37673134076E+01 0.38332466971E+01 0.40235410698E+01 0.43451819720E+01
 0.48086499139E+01 0.54239711964E+01 0.61944092790E+01 0.71089908178E+01 0.81363448949E+01
 0.92228802051E+01 0.10297325810E+02 0.11275160598E+02 0.12010579589E+02 0.11584927659E+02
 0.12007329166E+02 0.12108382500E+02 0.11945409267E+02 0.11640667936E+02 0.11336209478E+02
 0.11142349523E+02 0.11098786938E+02 0.11163259475E+02 0.11231609914E+02 0.11180092726E+02
 0.10912552179E+02 0.10395321149E+02 0.96693231552E+01 0.88303003925E+01 0.79501972353E+01
 0.70802773743E+01 0.62663344647E+01 0.55432668486E+01 0.49330859927E+01 0.44460423510E+01
 0.40836529226E+01 0.38423727850E+01 0.37170317258E+01 0.37035883507E+01 0.38010618287E+01
 0.40125815310E+01 0.43453000424E+01 0.48086499139E+01 0.54105006831E+01 0.61514336122E+01
 0.70184194529E+01 0.79801453935E+01 0.89864436237E+01 0.99732386951E+01 0.10871540279E+02
 0.10365890379E+02 0.11035071687E+02 0.11492606268E+02 0.11711789627E+02 0.11728906090E+02
 0.11622872335E+02 0.11480468463E+02 0.11360994921E+02 0.11274234820E+02 0.11180091500E+02
 0.11009112922E+02 0.10694595753E+02 0.10203161681E+02 0.95525813058E+01 0.88032130151E+01
 0.80038179057E+01 0.71971691006E+01 0.64245885700E+01 0.57201275131E+01 0.51075677055E+01
 0.46002880092E+01 0.42031473961E+01 0.39153031384E+01 0.37331202331E+01 0.36526673509E+01
 0.36715829198E+01 0.37902959835E+01 0.40125815310E+01 0.43451819720E+01 0.47960009769E+01
 0.53705515021E+01 0.60670124731E+01 0.68711386661E+01 0.77529285143E+01 0.86669423858E+01
 0.95572002472E+01 0.90639450754E+01 0.97785702292E+01 0.10379834991E+02 0.10831048644E+02
 0.11107832869E+02 0.11226306846E+02 0.11230017711E+02 0.11165559235E+02 0.11060462934E+02
 0.10912551160E+02 0.10694593853E+02 0.10371402807E+02 0.99214904744E+01 0.93540275669E+01
 0.87016378086E+01 0.79938951662E+01 0.72651900093E+01 0.65513311030E+01 0.58841013199E+01
 0.52876950920E+01 0.47775732323E+01 0.43613321407E+01 0.40407287372E+01 0.38140622038E+01
 0.36783736069E+01 0.36311683055E+01 0.36715829198E+01 0.38010618287E+01 0.40235410698E+01
 0.43448826882E+01 0.47711451388E+01 0.53054983534E+01 0.59441878458E+01 0.66726420371E+01
 0.74632483987E+01 0.82761955082E+01 0.78292773934E+01 0.85119909789E+01 0.91315257109E+01
 0.96556118730E+01 0.10063565253E+02 0.10344374969E+02 0.10499607486E+02 0.10547570204E+02
 0.10509148932E+02 0.10395322522E+02 0.10203160654E+02 0.99214885284E+01 0.95429518757E+01
 0.90740336733E+01 0.85273717973E+01 0.79223421993E+01 0.72855093835E+01 0.66466558345E+01
 0.60342591429E+01 0.54718399920E+01 0.49760610197E+01 0.45566596380E+01 0.42176985019E+01
 0.39594424229E+01 0.37802890386E+01 0.36783736069E+01 0.36526673509E+01 0.37035883507E+01
 0.38332466971E+01 0.40453464484E+01 0.43445415118E+01 0.47349327643E+01 0.52175898501E+01
 0.57874542509E+01 0.64305048181E+01 0.71223544685E+01 0.67437068015E+01 0.73437774546E+01
 0.79226469180E+01 0.84490851216E+01 0.88971232877E+01 0.92496811199E+01 0.94997553008E+01
 0.96487993061E+01 0.97029403572E+01 0.96693250548E+01 0.95525828659E+01 0.93540267905E+01
 0.90740320907E+01 0.87145715589E+01 0.82823692262E+01 0.77906476841E+01 0.72588618203E+01
 0.67105359955E+01 0.61699894914E+01 0.56590556025E+01 0.51947581949E+01 0.47884131853E+01
 0.44460636907E+01 0.41698026358E+01 0.39594424229E+01 0.38140622038E+01 0.37331202331E+01
 0.37170317258E+01 0.37673134076E+01 0.38864712257E+01 0.40777061421E+01 0.43443174137E+01
 0.46885666286E+01 0.51098801265E+01 0.56026241879E+01 0.61541102199E+01 0.58541726416E+01
 0.63421772942E+01 0.68386452367E+01 0.73185285528E+01 0.77570170042E+01 0.81331559627E+01
 0.84325827449E+01 0.86484035445E+01 0.87799779964E+01 0.88302996390E+01 0.88032145200E+01
 0.87016392156E+01 0.85273713435E+01 0.82823681977E+01 0.79707892104E+01 0.76008320340E+01
 0.71855144789E+01 0.67420064255E+01 0.62896989895E+01 0.58476598395E+01 0.54322835582E+01
 0.50557820617E+01 0.47258000634E+01 0.44460636907E+01 0.42176985019E+01 0.40407287372E+01
 0.39153031384E+01 0.38423727850E+01 0.38238008788E+01 0.38620904947E+01 0.39599789325E+01
 0.41200499046E+01 0.43443148239E+01 0.46335409739E+01 0.49861247372E+01 0.53965894471E+01
 0.51769731931E+01 0.55420865034E+01 0.59330386491E+01 0.63328223253E+01 0.67218800943E+01
 0.70805837317E+01 0.73920283413E+01 0.76442087860E+01 0.78307780166E+01 0.79501951998E+01
 0.80038169415E+01 0.79938961352E+01 0.79223432008E+01 0.77906475121E+01 0.76008315994E+01
 0.73569038698E+01 0.70660938726E+01 0.67392591242E+01 0.63902056022E+01 0.60341011957E+01
 0.56854868752E+01 0.53564956806E+01 0.50557820617E+01 0.47884131853E+01 0.45566596380E+01
 0.43613321407E+01 0.42031473961E+01 0.40836529226E+01 0.40054813244E+01 0.39720077106E+01
 0.39866988008E+01 0.40524931882E+01 0.41714346908E+01 0.43445345805E+01 0.45715897342E+01
 0.48506362405E+01 0.47081004985E+01 0.49517008107E+01 0.52291910858E+01 0.55309188717E+01
 0.58439270314E+01 0.61530339857E+01 0.64427694919E+01 0.66996366254E+01 0.69139092596E+01
 0.70802775817E+01 0.71971676356E+01 0.72651891699E+01 0.72855097750E+01 0.72588622630E+01
 0.71855145128E+01 0.70660939776E+01 0.69028178387E+01 0.67005310757E+01 0.64670495209E+01
 0.62125989142E+01 0.59484956030E+01 0.56854868752E+01 0.54322835582E+01 0.51947581949E+01
 0.49760610197E+01 0.47775732323E+01 0.46002880092E+01 0.44460423510E+01 0.43181210228E+01
 0.42210696429E+01 0.41599081403E+01 0.41391548827E+01 0.41620883277E+01 0.42304989287E+01
 0.43448732172E+01 0.45046481650E+01 0.44348202055E+01 0.45633630747E+01 0.47285448928E+01
 0.49260725257E+01 0.51489085011E+01 0.53872265969E+01 0.56292666155E+01 0.58629549076E+01
 0.60777969628E+01 0.62663361947E+01 0.64245890004E+01 0.65513303873E+01 0.66466552668E+01
 0.67105357926E+01 0.67420062656E+01 0.67392592926E+01 0.67005315944E+01 0.66253458726E+01
 0.65155511213E+01 0.63757032398E+01 0.62125989142E+01 0.60341011957E+01 0.58476598395E+01
 0.56590556025E+01 0.54718399920E+01 0.52876950920E+01 0.51075677055E+01 0.49330859927E+01
 0.47676256871E+01 0.46165585035E+01 0.44866106676E+01 0.43846610086E+01 0.43165119657E+01
 0.42861158500E+01 0.42954871824E+01 0.43451712506E+01 0.43452880527E+01 0.43643355469E+01
 0.44212019329E+01 0.45147089048E+01 0.46420132834E+01 0.47979566887E+01 0.49750347736E+01
 0.51641814123E+01 0.53561880542E+01 0.55432668209E+01 0.57201283981E+01 0.58841017917E+01
 0.60342591310E+01 0.61699891562E+01 0.62896982169E+01 0.63902049230E+01 0.64670497647E+01
 0.65155518663E+01 0.65321599176E+01 0.65155511213E+01 0.64670495209E+01 0.63902056022E+01
 0.62896989895E+01 0.61699894914E+01 0.60342591429E+01 0.58841013199E+01 0.57201275131E+01
 0.55432668486E+01 0.53561900759E+01 0.51641840839E+01 0.49750358862E+01 0.47979567867E+01
 0.46420153935E+01 0.45147143812E+01 0.44212085298E+01 0.43643398310E+01 0.44348201379E+01
 0.43451681362E+01 0.42954797695E+01 0.42861056509E+01 0.43165032869E+01 0.43846569585E+01
 0.44866100111E+01 0.46165579666E+01 0.47676241262E+01 0.49330845509E+01 0.51075671567E+01
 0.52876951465E+01 0.54718404099E+01 0.56590561130E+01 0.58476596167E+01 0.60340999881E+01
 0.62125979311E+01 0.63757035077E+01 0.65155518663E+01 0.66253458726E+01 0.67005310757E+01
 0.67392591242E+01 0.67420064255E+01 0.67105359955E+01 0.66466558345E+01 0.65513311030E+01
 0.64245885700E+01 0.62663344647E+01 0.60777961714E+01 0.58629568375E+01 0.56292697879E+01
 0.53872282480E+01 0.51489082593E+01 0.49260722247E+01 0.47285456401E+01 0.45633641879E+01
 0.47080955759E+01 0.45046434019E+01 0.43448674569E+01 0.42304901053E+01 0.41620771695E+01
 0.41391453966E+01 0.41599033295E+01 0.42210685884E+01 0.43181210752E+01 0.44460421901E+01
 0.46002875336E+01 0.47775724677E+01 0.49760604380E+01 0.51947585399E+01 0.54322843688E+01
 0.56854866780E+01 0.59484942299E+01 0.62125979311E+01 0.64670497647E+01 0.67005315944E+01
 0.69028178387E+01 0.70660938726E+01 0.71855144789E+01 0.72588618203E+01 0.72855093835E+01
 0.72651900093E+01 0.71971691006E+01 0.70802773743E+01 0.69139069641E+01 0.66996349195E+01
 0.64427705868E+01 0.61530368042E+01 0.58439289988E+01 0.55309186596E+01 0.52291886442E+01
 0.49516965842E+01 0.51769650761E+01 0.48506263213E+01 0.45715811112E+01 0.43445271937E+01
 0.41714263398E+01 0.40524838129E+01 0.39866911307E+01 0.39720037095E+01 0.40054803975E+01
 0.40836536207E+01 0.42031486064E+01 0.43613326582E+01 0.45566588463E+01 0.47884122233E+01
 0.50557823600E+01 0.53564965861E+01 0.56854866780E+01 0.60340999881E+01 0.63902049230E+01
 0.67392592926E+01 0.70660939776E+01 0.73569038698E+01 0.76008320340E+01 0.77906476841E+01
 0.79223421993E+01 0.79938951662E+01 0.80038179057E+01 0.79501972353E+01 0.78307782418E+01
 0.76442065116E+01 0.73920259990E+01 0.70805834733E+01 0.67218816563E+01 0.63328241127E+01
 0.59330387067E+01 0.55420827297E+01 0.58541685445E+01 0.53965795076E+01 0.49861122857E+01
 0.46335305454E+01 0.43443074117E+01 0.41200438137E+01 0.39599735783E+01 0.38620867779E+01
 0.38237990916E+01 0.38423725767E+01 0.39153045032E+01 0.40407310199E+01 0.42176997355E+01
 0.44460629254E+01 0.47257989766E+01 0.50557823600E+01 0.54322843688E+01 0.58476596167E+01
 0.62896982169E+01 0.67420062656E+01 0.71855145128E+01 0.76008315994E+01 0.79707892104E+01
 0.82823692262E+01 0.85273717973E+01 0.87016378086E+01 0.88032130151E+01 0.88303003925E+01
 0.87799801575E+01 0.86484043043E+01 0.84325812470E+01 0.81331536759E+01 0.77570153564E+01
 0.73185282002E+01 0.68386461812E+01 0.63421775746E+01 0.67437070229E+01 0.61541066887E+01
 0.56026148956E+01 0.51098684585E+01 0.46885572954E+01 0.43443119318E+01 0.40777037136E+01
 0.38864711411E+01 0.37673146650E+01 0.37170327883E+01 0.37331210013E+01 0.38140640979E+01
 0.39594452892E+01 0.41698041271E+01 0.44460629254E+01 0.47884122233E+01 0.51947585399E+01
 0.56590561130E+01 0.61699891562E+01 0.67105357926E+01 0.72588622630E+01 0.77906475121E+01
 0.82823681977E+01 0.87145715589E+01 0.90740336733E+01 0.93540275669E+01 0.95525813058E+01
 0.96693231552E+01 0.97029405054E+01 0.96488009298E+01 0.94997564545E+01 0.92496810709E+01
 0.88971219916E+01 0.84490825944E+01 0.79226445122E+01 0.73437770156E+01 0.78292754912E+01
 0.71223543415E+01 0.64305024551E+01 0.57874478642E+01 0.52175822656E+01 0.47349274457E+01
 0.43445396778E+01 0.40453483235E+01 0.38332518257E+01 0.37035941302E+01 0.36526707863E+01
 0.36783750654E+01 0.37802911367E+01 0.39594452892E+01 0.42176997355E+01 0.45566588463E+01
 0.49760604380E+01 0.54718404099E+01 0.60342591310E+01 0.66466552668E+01 0.72855097750E+01
 0.79223432008E+01 0.85273713435E+01 0.90740320907E+01 0.95429518757E+01 0.99214904744E+01
 0.10203161681E+02 0.10395321149E+02 0.10509146990E+02 0.10547569496E+02 0.10499607862E+02
 0.10344376112E+02 0.10063566971E+02 0.96556123693E+01 0.91315231531E+01 0.85119870267E+01
 0.90639406455E+01 0.82761927228E+01 0.74632478779E+01 0.66726411517E+01 0.59441859015E+01
 0.53054971554E+01 0.47711456874E+01 0.43448852105E+01 0.40235468009E+01 0.38010707722E+01
 0.36715913808E+01 0.36311726608E+01 0.36783750654E+01 0.38140640979E+01 0.40407310199E+01
 0.43613326582E+01 0.47775724677E+01 0.52876951465E+01 0.58841017917E+01 0.65513303873E+01
 0.72651891699E+01 0.79938961352E+01 0.87016392156E+01 0.93540267905E+01 0.99214885284E+01
 0.10371402807E+02 0.10694595753E+02 0.10912552179E+02 0.11060462133E+02 0.11165557845E+02
 0.11230016207E+02 0.11226305482E+02 0.11107833480E+02 0.10831051906E+02 0.10379837505E+02
 0.97785684433E+01 0.10365889780E+02 0.95571966921E+01 0.86669398430E+01 0.77529278755E+01
 0.68711393204E+01 0.60670154369E+01 0.53705571867E+01 0.47960073005E+01 0.43451880421E+01
 0.40125895494E+01 0.37903063255E+01 0.36715913808E+01 0.36526707863E+01 0.37331210013E+01
 0.39153045032E+01 0.42031486064E+01 0.46002875336E+01 0.51075671567E+01 0.57201283981E+01
 0.64245890004E+01 0.71971676356E+01 0.80038169415E+01 0.88032145200E+01 0.95525828659E+01
 0.10203160654E+02 0.10694593853E+02 0.11009112922E+02 0.11180092726E+02 0.11274235385E+02
 0.11360995035E+02 0.11480468307E+02 0.11622870419E+02 0.11728902982E+02 0.11711789336E+02
 0.11492610309E+02 0.11035075601E+02 0.11584931629E+02 0.10871540782E+02 0.99732372372E+01
 0.89864425342E+01 0.79801450512E+01 0.70184214743E+01 0.61514407489E+01 0.54105116396E+01
 0.48086598094E+01 0.43453074792E+01 0.40125895494E+01 0.38010707722E+01 0.37035941302E+01
 0.37170327883E+01 0.38423725767E+01 0.40836536207E+01 0.44460421901E+01 0.49330845509E+01
 0.55432668209E+01 0.62663361947E+01 0.70802775817E+01 0.79501951998E+01 0.88302996390E+01
 0.96693250548E+01 0.10395322522E+02 0.10912551160E+02 0.11180091500E+02 0.11231609914E+02
 0.11163259322E+02 0.11098786566E+02 0.11142350714E+02 0.11336211006E+02 0.11640666165E+02
 0.11945405037E+02 0.12108381333E+02 0.12007332877E+02 0.12363132751E+02 0.12010582042E+02
 0.11275161770E+02 0.10297327107E+02 0.92228812530E+01 0.81363450909E+01 0.71089937925E+01
 0.61944188072E+01 0.54239841253E+01 0.48086598094E+01 0.43451880421E+01 0.40235468009E+01
 0.38332518257E+01 0.37673146650E+01 0.38237990916E+01 0.40054803975E+01 0.43181210752E+01
 0.47676241262E+01 0.53561880542E+01 0.60777969628E+01 0.69139092596E+01 0.78307780166E+01
 0.87799779964E+01 0.97029403572E+01 0.10509148932E+02 0.11060462934E+02 0.11274234820E+02
 0.11163259475E+02 0.10837507466E+02 0.10473545629E+02 0.10257690680E+02 0.10320442558E+02
 0.10686820715E+02 0.11263396820E+02 0.11868073260E+02 0.12290914107E+02 0.12295020434E+02
 0.12576066759E+02 0.12311208981E+02 0.11565232422E+02 0.10518870160E+02 0.93679643401E+01
 0.82158505290E+01 0.71395513068E+01 0.61944188072E+01 0.54105116396E+01 0.47960073005E+01
 0.43448852105E+01 0.40453483235E+01 0.38864711411E+01 0.38620867779E+01 0.39720037095E+01
 0.42210685884E+01 0.46165579666E+01 0.51641814123E+01 0.58629549076E+01 0.66996366254E+01
 0.76442087860E+01 0.86484035445E+01 0.96487993061E+01 0.10547570204E+02 0.11165559235E+02
 0.11360994921E+02 0.11098786938E+02 0.10473547643E+02 0.96943218753E+01 0.90292799519E+01
 0.87228847852E+01 0.89128580755E+01 0.95794997714E+01 0.10548900673E+02 0.11548854955E+02
 0.11090839927E+02 0.12189068017E+02 0.12682081234E+02 0.12498244723E+02 0.11738653984E+02
 0.10631217272E+02 0.94168525387E+01 0.82158505290E+01 0.71089937925E+01 0.61514407489E+01
 0.53705571867E+01 0.47711456874E+01 0.43445396778E+01 0.40777037136E+01 0.39599735783E+01
 0.39866911307E+01 0.41599033295E+01 0.44866100111E+01 0.49750347736E+01 0.56292666155E+01
 0.64427694919E+01 0.73920283413E+01 0.84325827449E+01 0.94997553008E+01 0.10499607486E+02
 0.11230017711E+02 0.11480468463E+02 0.11142349523E+02 0.10257692263E+02 0.90292837476E+01
 0.77815285187E+01 0.68744812525E+01 0.65935247541E+01 0.70538518443E+01 0.81586543629E+01
 0.96287659460E+01 0.86857466103E+01 0.10625997495E+02 0.12055412127E+02 0.12723289107E+02
 0.12586705917E+02 0.11796205784E+02 0.10631217272E+02 0.93679643401E+01 0.81363450909E+01
 0.70184214743E+01 0.60670154369E+01 0.53054971554E+01 0.47349274457E+01 0.43443119318E+01
 0.41200438137E+01 0.40524838129E+01 0.41391453966E+01 0.43846569585E+01 0.47979566887E+01
 0.53872265969E+01 0.61530339857E+01 0.70805837317E+01 0.81331559627E+01 0.92496811199E+01
 0.10344374969E+02 0.11226306846E+02 0.11622872335E+02 0.11336209478E+02 0.10320440431E+02
 0.87228873973E+01 0.68744860016E+01 0.52197062524E+01 0.41961100678E+01 0.40994022021E+01
 0.49850347015E+01 0.66475224173E+01 0.53080080043E+01 0.79158965048E+01 0.10283707745E+02
 0.11967176092E+02 0.12732852354E+02 0.12586705917E+02 0.11738653984E+02 0.10518870160E+02
 0.92228812530E+01 0.79801450512E+01 0.68711393204E+01 0.59441859015E+01 0.52175822656E+01
 0.46885572954E+01 0.43443074117E+01 0.41714263398E+01 0.41620771695E+01 0.43165032869E+01
 0.46420132834E+01 0.51489085011E+01 0.58439270314E+01 0.67218800943E+01 0.77570170042E+01
 0.88971232877E+01 0.10063565253E+02 0.11107832869E+02 0.11728906090E+02 0.11640667936E+02
 0.10686817632E+02 0.89128554971E+01 0.65935276850E+01 0.41961143358E+01 0.22738570581E+01
 0.13114969792E+01 0.15740182974E+01 0.30187373931E+01 0.14790472123E+01 0.43863562701E+01
 0.74839847235E+01 0.10158136684E+02 0.11967176092E+02 0.12723289107E+02 0.12498244723E+02
 0.11565232422E+02 0.10297327107E+02 0.89864425342E+01 0.77529278755E+01 0.66726411517E+01
 0.57874478642E+01 0.51098684585E+01 0.46335305454E+01 0.43445271937E+01 0.42304901053E+01
 0.42861056509E+01 0.45147089048E+01 0.49260725257E+01 0.55309188717E+01 0.63328223253E+01
 0.73185285528E+01 0.84490851216E+01 0.96556118730E+01 0.10831048644E+02 0.11711789627E+02
 0.11945409267E+02 0.11263397960E+02 0.95794959803E+01 0.70538495521E+01 0.40994044101E+01
 0.13114992106E+01 -.67699203645E+00 -.13778634080E+01 -.60178621038E+00 -.20749861690E+01
 0.63357150657E+00 0.40579665876E+01 0.74839847235E+01 0.10283707745E+02 0.12055412127E+02
 0.12682081234E+02 0.12311208981E+02 0.11275161770E+02 0.99732372372E+01 0.86669398430E+01
 0.74632478779E+01 0.64305024551E+01 0.56026148956E+01 0.49861122857E+01 0.45715811112E+01
 0.43448674569E+01 0.42954797695E+01 0.44212019329E+01 0.47285448928E+01 0.52291910858E+01
 0.59330386491E+01 0.68386452367E+01 0.79226469180E+01 0.91315257109E+01 0.10379834991E+02
 0.11492606268E+02 0.12108382500E+02 0.11868077456E+02 0.10548900971E+02 0.81586512145E+01
 0.49850334527E+01 0.15740188292E+01 -.13778642376E+01 -.32028700721E+01 -.34598223477E+01
 -.45961011314E+01 -.25960661202E+01 0.63357150657E+00 0.43863562701E+01 0.79158965048E+01
 0.10625997495E+02 0.12189068017E+02 0.12576066759E+02 0.12010582042E+02 0.10871540782E+02
 0.95571966921E+01 0.82761927228E+01 0.71223543415E+01 0.61541066887E+01 0.53965795076E+01
 0.48506263213E+01 0.45046434019E+01 0.43451681362E+01 0.43643355469E+01 0.45633630747E+01
 0.49517008107E+01 0.55420865034E+01 0.63421772942E+01 0.73437774546E+01 0.85119909789E+01
 0.97785702292E+01 0.11035071687E+02 0.12007329166E+02 0.12290915666E+02 0.11548857770E+02
 0.96287655074E+01 0.66475212299E+01 0.30187376722E+01 -.60178776869E+00 -.34598262203E+01
 -.49066560354E+01 -.45961068606E+01 -.39965690633E+01 -.18327834040E+01 0.14020089112E+01
 0.50104051034E+01 0.82884816179E+01 0.10698849421E+02 0.11972400375E+02 0.12126607158E+02
 0.11413079737E+02 0.10217477574E+02 0.89104186602E+01 0.76604205166E+01 0.65529697515E+01
 0.56383622086E+01 0.49347589893E+01 0.44383727945E+01 0.41354885865E+01 0.40125690231E+01
 0.40629490998E+01 0.42895828222E+01 0.47036071118E+01 0.53189141542E+01 0.61432372602E+01
 0.71667662650E+01 0.83510430053E+01 0.96230221986E+01 0.10861550594E+02 0.11760468977E+02
 0.11920852111E+02 0.11035835558E+02 0.90010869782E+01 0.59869774725E+01 0.24474829282E+01
 -.95313119647E+00 -.34940975415E+01 -.39965741873E+01 -.45961164552E+01 -.34941078919E+01
 -.95314027572E+00 0.24474727069E+01 0.59869653011E+01 0.90010791774E+01 0.11035838011E+02
 0.11920860479E+02 0.11760474339E+02 0.10861551644E+02 0.96230234731E+01 0.83510445735E+01
 0.71667648716E+01 0.61432350243E+01 0.53189159683E+01 0.47036110604E+01 0.42895829126E+01
 0.40629459858E+01 0.40125683573E+01 0.41354902230E+01 0.44383715763E+01 0.49347551806E+01
 0.56383611390E+01 0.65529716415E+01 0.76604203215E+01 0.89104155676E+01 0.10217475075E+02
 0.11413076713E+02 0.12126599008E+02 0.11972389659E+02 0.10698845725E+02 0.82884888999E+01
 0.50104168247E+01 0.14020168633E+01 -.18327821792E+01 -.17238290198E+01 -.33789642042E+01
 -.34598412958E+01 -.19594345109E+01 0.75776909981E+00 0.40705039952E+01 0.72854569476E+01
 0.98211911311E+01 0.11333252338E+02 0.11756534310E+02 0.11272111618E+02 0.10221069436E+02
 0.89811519088E+01 0.77639934619E+01 0.66621593256E+01 0.57343885249E+01 0.50073212722E+01
 0.44835509377E+01 0.41527929280E+01 0.40021358151E+01 0.40235307380E+01 0.42178398666E+01
 0.45949846264E+01 0.51700152145E+01 0.59553033449E+01 0.69495496696E+01 0.81257910429E+01
 0.94229694100E+01 0.10744204704E+02 0.11865491940E+02 0.12395246837E+02 0.11983608994E+02
 0.10447451772E+02 0.78549092242E+01 0.45544030839E+01 0.11296729981E+01 0.16883335021E+01
 -.64036028521E+00 -.17440689356E+01 -.13778799750E+01 0.34876969200E+00 0.30070186411E+01
 0.59829716536E+01 0.86569568077E+01 0.10561648323E+02 0.11473594064E+02 0.11426255018E+02
 0.10657930798E+02 0.95181280922E+01 0.83125243196E+01 0.71692973622E+01 0.61637222503E+01
 0.53396771316E+01 0.47130376723E+01 0.42808448931E+01 0.40317478014E+01 0.39547791837E+01
 0.40453418442E+01 0.43078956687E+01 0.47549175851E+01 0.54019602814E+01 0.62589785923E+01
 0.73188839007E+01 0.85462556460E+01 0.98712567191E+01 0.11184801467E+02 0.12221046721E+02
 0.12600481635E+02 0.12024476503E+02 0.10382005150E+02 0.78144925899E+01 0.47205463809E+01
 0.54889346420E+01 0.29847546437E+01 0.12355513154E+01 0.63813321752E+00 0.13114862719E+01
 0.30587904050E+01 0.54312466854E+01 0.78682108483E+01 0.98578698871E+01 0.11062346869E+02
 0.11375582807E+02 0.10911821025E+02 0.99411112253E+01 0.87862867006E+01 0.76391817882E+01
 0.65867452391E+01 0.56873568885E+01 0.49708555542E+01 0.44442215831E+01 0.41008399426E+01
 0.39296539038E+01 0.39223182911E+01 0.40777082040E+01 0.44033604482E+01 0.49134378686E+01
 0.56229939816E+01 0.65387165305E+01 0.76475218672E+01 0.89065875622E+01 0.10239894468E+02
 0.11527794327E+02 0.12486895366E+02 0.12771183822E+02 0.12140738857E+02 0.10550796859E+02
 0.81951916299E+01 0.89312412880E+01 0.67227733511E+01 0.47963617851E+01 0.35953288393E+01
 0.33905856136E+01 0.41961054350E+01 0.57655113272E+01 0.76730833612E+01 0.94464188047E+01
 0.10699510108E+02 0.11222868699E+02 0.11011613298E+02 0.10235743312E+02 0.91692879278E+01
 0.80506984566E+01 0.69832471982E+01 0.60346555666E+01 0.52468808817E+01 0.46376834017E+01
 0.42074748248E+01 0.39478361386E+01 0.38490817624E+01 0.39058082178E+01 0.41200571112E+01
 0.45017102626E+01 0.50656830491E+01 0.58256184027E+01 0.67843743899E+01 0.79231661130E+01
 0.91933653008E+01 0.10515610283E+02 0.11765610534E+02 0.12666890554E+02 0.12918571153E+02
 0.12338956367E+02 0.10936212923E+02 0.11458468803E+02 0.98790088260E+01 0.82005403817E+01
 0.68217456943E+01 0.60715217309E+01 0.61091106543E+01 0.68744807125E+01 0.81104884986E+01
 0.94487939247E+01 0.10524942821E+02 0.11079967470E+02 0.11018076188E+02 0.10410998010E+02
 0.94565094623E+01 0.83898850584E+01 0.73358825903E+01 0.63654425451E+01 0.55288259002E+01
 0.48534576462E+01 0.43476956255E+01 0.40077766206E+01 0.38250498967E+01 0.37918945859E+01
 0.39058098501E+01 0.41714438835E+01 0.46001789138E+01 0.52067667832E+01 0.60026778147E+01
 0.69866923733E+01 0.81350453003E+01 0.93952096322E+01 0.10687241104E+02 0.11890946819E+02
 0.12755828770E+02 0.13030009738E+02 0.12583058427E+02 0.12803526737E+02 0.11995678269E+02
 0.10851328807E+02 0.96661892417E+01 0.87455779739E+01 0.83130984038E+01 0.84410073338E+01
 0.90292811248E+01 0.98427845795E+01 0.10591688008E+02 0.11023337975E+02 0.10993196275E+02
 0.10495433438E+02 0.96500768726E+01 0.86504333832E+01 0.76322397518E+01 0.66653835404E+01
 0.58037742311E+01 0.50818679154E+01 0.45154134252E+01 0.41062570542E+01 0.38485866668E+01
 0.37346641960E+01 0.37592218364E+01 0.39223231630E+01 0.42305071258E+01 0.46957857866E+01
 0.53319059713E+01 0.61475903062E+01 0.71376008038E+01 0.82742280760E+01 0.95030483515E+01
 0.10746004743E+02 0.11895104386E+02 0.12738448860E+02 0.13071301945E+02 0.12996758258E+02
 0.12916297718E+02 0.12414148672E+02 0.11660352341E+02 0.10883493897E+02 0.10300762895E+02
 0.10049365338E+02 0.10143459608E+02 0.10473547048E+02 0.10848769743E+02 0.11064870626E+02
 0.10971635048E+02 0.10517150607E+02 0.97575968944E+01 0.88317754861E+01 0.78652809407E+01
 0.69236150360E+01 0.60600035794E+01 0.53126515955E+01 0.47030220232E+01 0.42384239905E+01
 0.39168480514E+01 0.37320747646E+01 0.36779493546E+01 0.37514905699E+01 0.39547869844E+01
 0.42954932698E+01 0.47854192816E+01 0.54365818387E+01 0.62545941839E+01 0.72305392514E+01
 0.83339978602E+01 0.95105876499E+01 0.10686227164E+02 0.11769249594E+02 0.12593717077E+02
 0.12302951422E+02 0.12763769438E+02 0.12845590837E+02 0.12600198928E+02 0.12157368974E+02
 0.11680829674E+02 0.11313250115E+02 0.11128848218E+02 0.11110968944E+02 0.11163260694E+02