    2    2   15    1
  0.1529437E+02  0.3691622E-09  0.3691622E-09  0.3691622E-09  0.5000000E-15
  1.000000000000000E-004
  CAR 
 unknown system                          
      8     99      8
 
  0.5000000E-01  0.5000000E-01  0.5000000E-01  0.8000000E-02
    1       -4.272326   1.000000
    2        4.741784   1.000000
    3        6.612877   1.000000
    4        7.761729   1.000000
    5       11.610055   0.000000
    6       15.146384   0.000000
    7       16.177448   0.000000
    8       17.016268   0.000000
 
  0.1500000E+00  0.5000000E-01  0.5000000E-01  0.1600000E-01
    1       -3.427831   1.000000
    2        4.467915   1.000000
    3        6.876846   1.000000
    4        9.171735   0.341210
    5       12.682506   0.000000
    6       13.121656   0.000000
    7       13.502212   0.000000
    8       15.432948   0.000000
 
  0.2500000E+00  0.5000000E-01  0.5000000E-01  0.1600000E-01
    1       -2.029762   1.000000
    2        4.676813   1.000000
    3        7.195754   1.000000
    4        8.622730   0.999743
    5       10.744001   0.000000
    6       12.048773   0.000000
    7       13.782928   0.000000
    8       14.472308   0.000000
 
  0.3500000E+00  0.5000000E-01  0.5000000E-01  0.1600000E-01
    1       -0.094477   1.000000
    2        5.126723   1.000000
    3        5.627787   1.000000
    4        7.617111   1.000000
    5        8.926583   0.907303
    6       11.901195   0.000000
    7       13.775729   0.000000
    8       14.238037   0.000000
 
  0.4500000E+00  0.5000000E-01  0.5000000E-01  0.8000000E-02
    1        2.104128   1.000000
    2        2.651900   1.000000
    3        6.529022   1.000000
    4        6.685190   1.000000
    5        8.836104   0.975241
    6       10.888299   0.000000
    7       13.586677   0.000000
    8       14.656096   0.000000
 
 -0.5000000E-01  0.5000000E-01  0.5000000E-01  0.4000000E-02
    1       -4.554649   1.000000
    2        5.179341   1.000000
    3        6.065840   1.000000
    4        7.434219   1.000000
    5       11.012777   0.000000
    6       15.610681   0.000000
    7       17.429081   0.000000
    8       18.229377   0.000000
 
  0.1500000E+00  0.1500000E+00  0.5000000E-01  0.8000000E-02
    1       -2.146916   1.000000
    2        4.639533   1.000000
    3        8.179587   1.000000
    4        9.107549   0.517828
    5       10.192587   0.000000
    6       11.033166   0.000000
    7       14.599217   0.000000
    8       14.605840   0.000000
 
  0.2500000E+00  0.1500000E+00  0.5000000E-01  0.1600000E-01
    1       -0.325462   1.000000
    2        5.234476   1.000000
    3        6.223253   1.000000
    4        7.151526   1.000000
    5        9.826843   0.000000
    6       12.458263   0.000000
    7       12.877827   0.000000
    8       13.774568   0.000000
 
  0.3500000E+00  0.1500000E+00  0.5000000E-01  0.1600000E-01
    1        1.971781   1.000000
    2        3.227127   1.000000
    3        5.356753   1.000000
    4        6.389977   1.000000
    5        9.907781   0.000000
    6       11.855727   0.000000
    7       12.876799   0.000000
    8       15.358380   0.000000
 
  0.4500000E+00  0.1500000E+00  0.5000000E-01  0.1600000E-01
    1        0.596354   1.000000
    2        3.911610   1.000000
    3        4.975563   1.000000
    4        7.660613   1.000000
    5        9.247981   0.171488
    6       12.251657   0.000000
    7       13.525496   0.000000
    8       15.234602   0.000000
 
 -0.4500000E+00  0.1500000E+00  0.5000000E-01  0.1600000E-01
    1       -1.444032   1.000000
    2        3.104321   1.000000
    3        7.591087   1.000000
    4        8.235030   1.000000
    5       10.388917   0.000000
    6       12.610922   0.000000
    7       12.885089   0.000000
    8       15.371528   0.000000
 
 -0.3500000E+00  0.1500000E+00  0.5000000E-01  0.1600000E-01
    1       -2.954685   1.000000
    2        2.775601   1.000000
    3        7.293815   1.000000
    4        9.860512   0.000000
    5       12.047835   0.000000
    6       12.561724   0.000000
    7       14.118454   0.000000
    8       15.597878   0.000000
 
 -0.2500000E+00  0.1500000E+00  0.5000000E-01  0.8000000E-02
    1       -3.915637   1.000000
    2        2.965539   1.000000
    3        6.945670   1.000000
    4        8.592738   0.999886
    5       13.316757   0.000000
    6       13.600318   0.000000
    7       15.045994   0.000000
    8       16.527753   0.000000
 
 -0.1500000E+00  0.1500000E+00  0.5000000E-01  0.8000000E-02
    1       -4.316599   1.000000
    2        3.631118   1.000000
    3        6.101904   1.000000
    4        8.497076   0.999994
    5       12.324466   0.000000
    6       13.792169   0.000000
    7       16.322888   0.000000
    8       19.216201   0.000000
 
 -0.5000000E-01  0.1500000E+00  0.5000000E-01  0.8000000E-02
    1       -4.153442   1.000000
    2        4.418141   1.000000
    3        5.704532   1.000000
    4        8.879877   0.950996
    5       12.138628   0.000000
    6       13.905844   0.000000
    7       16.016457   0.000000
    8       17.538582   0.000000
 
  0.2500000E+00  0.2500000E+00  0.5000000E-01  0.8000000E-02
    1        1.877477   1.000000
    2        4.151824   1.000000
    3        4.233339   1.000000
    4        6.311748   1.000000
    5       10.558938   0.000000
    6       11.746080   0.000000
    7       13.623694   0.000000
    8       14.234167   0.000000
 
  0.3500000E+00  0.2500000E+00  0.5000000E-01  0.1600000E-01
    1        1.507838   1.000000
    2        2.626429   1.000000
    3        4.730890   1.000000
    4        7.636490   1.000000
    5        9.839257   0.000000
    6       11.233913   0.000000
    7       14.915905   0.000000
    8       15.818159   0.000000
 
  0.4500000E+00  0.2500000E+00  0.5000000E-01  0.1600000E-01
    1       -0.628593   1.000000
    2        1.662655   1.000000
    3        7.762557   1.000000
    4        8.389515   1.000000
    5        9.983528   0.000000
    6       11.725830   0.000000
    7       13.478664   0.000000
    8       15.469149   0.000000
 
 -0.4500000E+00  0.2500000E+00  0.5000000E-01  0.1600000E-01
    1       -2.247818   1.000000
    2        1.216799   1.000000
    3        7.937082   1.000000
    4       10.371446   0.000000
    5       11.107057   0.000000
    6       12.162613   0.000000
    7       13.518404   0.000000
    8       14.514124   0.000000
 
 -0.3500000E+00  0.2500000E+00  0.5000000E-01  0.8000000E-02
    1       -3.323090   1.000000
    2        1.307361   1.000000
    3        7.500360   1.000000
    4        9.330030   0.063197
    5       11.874475   0.000000
    6       13.693372   0.000000
    7       15.548875   0.000000
    8       16.137035   0.000000
 
 -0.2500000E+00  0.2500000E+00  0.5000000E-01  0.8000000E-02
    1       -3.841480   1.000000
    2        1.921476   1.000000
    3        6.531434   1.000000
    4        9.272401   0.131149
    5       12.076168   0.000000
    6       14.515601   0.000000
    7       14.828575   0.000000
    8       19.085996   0.000000
 
 -0.1500000E+00  0.2500000E+00  0.5000000E-01  0.1600000E-01
    1       -3.797322   1.000000
    2        3.004854   1.000000
    3        5.678346   1.000000
    4        9.941587   0.000000
    5       12.199737   0.000000
    6       13.737017   0.000000
    7       15.400994   0.000000
    8       16.990199   0.000000
 
 -0.5000000E-01  0.2500000E+00  0.5000000E-01  0.8000000E-02
    1       -3.191383   1.000000
    2        4.185120   1.000000
    3        5.658771   1.000000
    4       10.349967   0.000000
    5       12.382320   0.000000
    6       12.653175   0.000000
    7       13.903740   0.000000
    8       15.095397   0.000000
 
  0.3500000E+00  0.3500000E+00  0.5000000E-01  0.8000000E-02
    1        0.407621   1.000000
    2        0.416051   1.000000
    3        7.706386   1.000000
    4        8.775700   0.991604
    5        9.683871   0.000028
    6       11.312548   0.000000
    7       14.098114   0.000000
    8       14.876318   0.000000
 
  0.4500000E+00  0.3500000E+00  0.5000000E-01  0.1600000E-01
    1       -1.311745   1.000000
    2       -0.152498   1.000000
    3        8.778350   0.991166
    4        9.774376   0.000002
    5       10.990628   0.000000
    6       12.198291   0.000000
    7       13.239607   0.000000
    8       13.548392   0.000000
 
 -0.4500000E+00  0.3500000E+00  0.5000000E-01  0.8000000E-02
    1       -2.497783   1.000000
    2       -0.171663   1.000000
    3        8.278613   1.000000
    4       10.174633   0.000000
    5       10.487436   0.000000
    6       12.379838   0.000000
    7       15.901967   0.000000
    8       15.904768   0.000000
 
 -0.3500000E+00  0.3500000E+00  0.5000000E-01  0.8000000E-02
    1       -3.131424   1.000000
    2        0.351435   1.000000
    3        7.201323   1.000000
    4       10.067493   0.000000
    5       10.548718   0.000000
    6       13.405126   0.000000
    7       17.073480   0.000000
    8       18.861835   0.000000
 
 -0.2500000E+00  0.3500000E+00  0.5000000E-01  0.1600000E-01
    1       -3.205710   1.000000
    2        1.398760   1.000000
    3        6.184651   1.000000
    4       10.580712   0.000000
    5       10.779432   0.000000
    6       14.515347   0.000000
    7       15.851346   0.000000
    8       16.280206   0.000000
 
 -0.1500000E+00  0.3500000E+00  0.5000000E-01  0.1600000E-01
    1       -2.719813   1.000000
    2        2.903977   1.000000
    3        5.658394   1.000000
    4       10.523223   0.000000
    5       11.145240   0.000000
    6       12.755429   0.000000
    7       14.664740   0.000000
    8       15.905548   0.000000
 
 -0.5000000E-01  0.3500000E+00  0.5000000E-01  0.8000000E-02
    1       -1.678871   1.000000
    2        4.476444   1.000000
    3        6.031693   1.000000
    4        7.977651   1.000000
    5       10.953318   0.000000
    6       13.023338   0.000000
    7       13.813734   0.000000
    8       13.843451   0.000000
 
  0.4500000E+00  0.4500000E+00  0.5000000E-01  0.4000000E-02
    1       -1.444944   1.000000
    2       -1.444941   1.000000
    3        9.267157   0.139205
    4        9.267162   0.139198
    5       11.200670   0.000000
    6       11.200677   0.000000
    7       15.831294   0.000000
    8       15.831347   0.000000
 
 -0.4500000E+00  0.4500000E+00  0.5000000E-01  0.8000000E-02
    1       -2.191332   1.000000
    2       -1.027032   1.000000
    3        8.096137   1.000000
    4        9.215891   0.235335
    5       11.006395   0.000000
    6       12.120438   0.000000
    7       18.630562   0.000000
    8       18.709014   0.000000
 
 -0.3500000E+00  0.4500000E+00  0.5000000E-01  0.1600000E-01
    1       -2.382177   1.000000
    2       -0.065465   1.000000
    3        6.954978   1.000000
    4        9.174768   0.333378
    5       11.594983   0.000000
    6       13.606371   0.000000
    7       15.413225   0.000000
    8       16.870435   0.000000
 
 -0.2500000E+00  0.4500000E+00  0.5000000E-01  0.1600000E-01
    1       -2.015792   1.000000
    2        1.414325   1.000000
    3        6.246172   1.000000
    4        9.452213   0.008368
    5       10.622156   0.000000
    6       13.357618   0.000000
    7       14.415031   0.000000
    8       16.410147   0.000000
 
 -0.1500000E+00  0.4500000E+00  0.5000000E-01  0.1600000E-01
    1       -1.096367   1.000000
    2        3.331186   1.000000
    3        6.088819   1.000000
    4        7.480464   1.000000
    5       10.082811   0.000000
    6       12.486298   0.000000
    7       14.466598   0.000000
    8       15.243935   0.000000
 
 -0.5000000E-01  0.4500000E+00  0.5000000E-01  0.8000000E-02
    1        0.364065   1.000000
    2        4.576407   1.000000
    3        5.454766   1.000000
    4        6.816741   1.000000
    5        9.290100   0.106359
    6       11.867392   0.000000
    7       12.470120   0.000000
    8       15.664773   0.000000
 
 -0.4500000E+00 -0.4500000E+00  0.5000000E-01  0.8000000E-02
    1       -1.333288   1.000000
    2       -1.331465   1.000000
    3        7.946620   1.000000
    4        7.970077   1.000000
    5       12.380095   0.000000
    6       12.753854   0.000000
    7       15.237435   0.000000
    8       16.841153   0.000000
 
 -0.3500000E+00 -0.4500000E+00  0.5000000E-01  0.1600000E-01
    1       -1.084475   1.000000
    2        0.065378   1.000000
    3        7.111220   1.000000
    4        8.194160   1.000000
    5       10.459877   0.000000
    6       14.132761   0.000000
    7       14.259225   0.000000
    8       15.415650   0.000000
 
 -0.2500000E+00 -0.4500000E+00  0.5000000E-01  0.1600000E-01
    1       -0.286690   1.000000
    2        1.967810   1.000000
    3        6.694905   1.000000
    4        7.222313   1.000000
    5        8.895515   0.938707
    6       12.143760   0.000000
    7       15.433309   0.000000
    8       16.541791   0.000000
 
 -0.1500000E+00 -0.4500000E+00  0.5000000E-01  0.1600000E-01
    1        1.045881   1.000000
    2        3.997411   1.000000
    3        4.576213   1.000000
    4        6.972846   1.000000
    5        9.174688   0.333582
    6       11.255309   0.000000
    7       12.961717   0.000000
    8       16.756152   0.000000
 
 -0.5000000E-01 -0.4500000E+00  0.5000000E-01  0.8000000E-02
    1        1.743122   1.000000
    2        3.006945   1.000000
    3        6.604258   1.000000
    4        7.723058   1.000000
    5        7.917103   1.000000
    6       10.670633   0.000000
    7       12.525045   0.000000
    8       15.638930   0.000000
 
 -0.3500000E+00 -0.3500000E+00  0.5000000E-01  0.8000000E-02
    1        0.733281   1.000000
    2        0.750653   1.000000
    3        6.942305   1.000000
    4        7.638947   1.000000
    5        7.942197   1.000000
    6       12.029197   0.000000
    7       16.019356   0.000000
    8       17.020520   0.000000
 
 -0.2500000E+00 -0.3500000E+00  0.5000000E-01  0.1600000E-01
    1        1.938258   1.000000
    2        3.007394   1.000000
    3        4.116154   1.000000
    4        7.617543   1.000000
    5        8.593298   0.999884
    6       10.639990   0.000000
    7       14.542652   0.000000
    8       16.309144   0.000000
 
 -0.1500000E+00 -0.3500000E+00  0.5000000E-01  0.1600000E-01
    1        1.427645   1.000000
    2        3.754604   1.000000
    3        5.802333   1.000000
    4        7.513520   1.000000
    5        8.719163   0.997373
    6       11.046699   0.000000
    7       11.788985   0.000000
    8       15.166423   0.000000
 
 -0.5000000E-01 -0.3500000E+00  0.5000000E-01  0.8000000E-02
    1       -0.557342   1.000000
    2        5.901881   1.000000
    3        6.672526   1.000000
    4        7.744424   1.000000
    5        8.685402   0.998776
    6       11.301862   0.000000
    7       12.839578   0.000000
    8       14.125198   0.000000
 
 -0.2500000E+00 -0.2500000E+00  0.5000000E-01  0.8000000E-02
    1        1.318429   1.000000
    2        4.690590   1.000000
    3        4.739233   1.000000
    4        7.520357   1.000000
    5        9.182697   0.313246
    6       10.503088   0.000000
    7       12.936316   0.000000
    8       13.737874   0.000000
 
 -0.1500000E+00 -0.2500000E+00  0.5000000E-01  0.1600000E-01
    1       -0.790485   1.000000
    2        6.665339   1.000000
    3        6.943972   1.000000
    4        7.623483   1.000000
    5        9.153394   0.389942
    6       11.639073   0.000000
    7       11.715687   0.000000
    8       12.869642   0.000000
 
 -0.5000000E-01 -0.2500000E+00  0.5000000E-01  0.8000000E-02
    1       -2.382473   1.000000
    2        6.041657   1.000000
    3        7.225472   1.000000
    4        9.032013   0.718645
    5       10.709510   0.000000
    6       11.517332   0.000000
    7       13.093706   0.000000
    8       14.432616   0.000000
 
 -0.1500000E+00 -0.1500000E+00  0.5000000E-01  0.8000000E-02
    1       -2.500299   1.000000
    2        6.349571   1.000000
    3        7.988301   1.000000
    4        8.896792   0.937606
    5       10.516570   0.000000
    6       11.076686   0.000000
    7       13.163515   0.000000
    8       13.861515   0.000000
 
 -0.5000000E-01 -0.1500000E+00  0.5000000E-01  0.8000000E-02
    1       -3.664971   1.000000
    2        5.994272   1.000000
    3        6.836861   1.000000
    4        8.172979   1.000000
    5       11.895966   0.000000
    6       13.409209   0.000000
    7       13.776213   0.000000
    8       16.155823   0.000000
 
 -0.5000000E-01 -0.5000000E-01  0.5000000E-01  0.2000000E-02
    1       -4.391436   1.000000
    2        6.420505   1.000000
    3        6.501616   1.000000
    4        6.501641   1.000000
    5       10.886287   0.000000
    6       16.446909   0.000000
    7       16.604180   0.000000
    8       17.337672   0.000000
 
  0.1500000E+00  0.1500000E+00  0.1500000E+00  0.8000000E-02
    1       -1.560182   1.000000
    2        3.015094   1.000000
    3        8.367683   1.000000
    4        8.905332   0.929839
    5       10.142579   0.000000
    6       11.374926   0.000000
    7       14.097682   0.000000
    8       14.770374   0.000000
 
  0.2500000E+00  0.1500000E+00  0.1500000E+00  0.1600000E-01
    1        0.368979   1.000000
    2        3.749883   1.000000
    3        5.796782   1.000000
    4        6.797166   1.000000
    5       10.579567   0.000000
    6       13.260659   0.000000
    7       13.742600   0.000000
    8       14.524191   0.000000
 
  0.3500000E+00  0.1500000E+00  0.1500000E+00  0.8000000E-02
    1        2.563446   1.000000
    2        3.080018   1.000000
    3        4.914335   1.000000
    4        5.236618   1.000000
    5       11.196646   0.000000
    6       13.003832   0.000000
    7       14.097875   0.000000
    8       14.435909   0.000000
 
 -0.1500000E+00  0.1500000E+00  0.1500000E+00  0.4000000E-02
    1       -4.079099   1.000000
    2        3.344953   1.000000
    3        4.848008   1.000000
    4       10.060480   0.000000
    5       12.043025   0.000000
    6       13.161605   0.000000
    7       17.827646   0.000000
    8       18.120553   0.000000
 
  0.2500000E+00  0.2500000E+00  0.1500000E+00  0.8000000E-02
    1        2.631964   1.000000
    2        3.782603   1.000000
    3        3.955506   1.000000
    4        5.022385   1.000000
    5       11.970371   0.000000
    6       13.378160   0.000000
    7       14.438666   0.000000
    8       14.528148   0.000000
 
  0.3500000E+00  0.2500000E+00  0.1500000E+00  0.1600000E-01
    1        1.287476   1.000000
    2        2.421412   1.000000
    3        5.583580   1.000000
    4        6.610780   1.000000
    5       11.451188   0.000000
    6       12.737830   0.000000
    7       14.004726   0.000000
    8       15.069192   0.000000
 
  0.4500000E+00  0.2500000E+00  0.1500000E+00  0.8000000E-02
    1       -0.742830   1.000000
    2        1.557381   1.000000
    3        8.448316   0.999999
    4        8.656818   0.999385
    5       10.553598   0.000000
    6       11.896000   0.000000
    7       12.847272   0.000000
    8       14.035138   0.000000
 
 -0.2500000E+00  0.2500000E+00  0.1500000E+00  0.8000000E-02
    1       -3.605622   1.000000
    2        2.051253   1.000000
    3        4.845139   1.000000
    4       10.322297   0.000000
    5       11.202406   0.000000
    6       15.003975   0.000000
    7       16.668660   0.000000
    8       18.537360   0.000000
 
 -0.1500000E+00  0.2500000E+00  0.1500000E+00  0.8000000E-02
    1       -3.442861   1.000000
    2        2.801068   1.000000
    3        4.418972   1.000000
    4       10.451275   0.000000
    5       11.561328   0.000000
    6       14.788126   0.000000
    7       14.979752   0.000000
    8       18.154191   0.000000
 
  0.3500000E+00  0.3500000E+00  0.1500000E+00  0.4000000E-02
    1        0.300381   1.000000
    2        0.300384   1.000000
    3        8.510624   0.999990
    4        8.510666   0.999990
    5       11.358833   0.000000
    6       11.358864   0.000000
    7       13.113865   0.000000
    8       13.113900   0.000000
 
 -0.3500000E+00  0.3500000E+00  0.1500000E+00  0.8000000E-02
    1       -2.898478   1.000000
    2        0.549665   1.000000
    3        5.441863   1.000000
    4        8.780498   0.990796
    5       12.113017   0.000000
    6       15.362394   0.000000
    7       17.339487   0.000000
    8       18.368467   0.000000
 
 -0.2500000E+00  0.3500000E+00  0.1500000E+00  0.1600000E-01
    1       -2.854716   1.000000
    2        1.630702   1.000000
    3        4.482939   1.000000
    4        8.827303   0.978635
    5       12.564949   0.000000
    6       14.650522   0.000000
    7       16.764115   0.000000
    8       17.678469   0.000000
 
 -0.1500000E+00  0.3500000E+00  0.1500000E+00  0.8000000E-02
    1       -2.251692   1.000000
    2        2.801989   1.000000
    3        4.474960   1.000000
    4        9.287678   0.109535
    5       10.474020   0.000000
    6       14.219517   0.000000
    7       15.666637   0.000000
    8       16.390258   0.000000
 
 -0.4500000E+00  0.4500000E+00  0.1500000E+00  0.8000000E-02
    1       -1.962838   1.000000
    2       -0.807534   1.000000
    3        6.322405   1.000000
    4        7.439738   1.000000
    5       13.065257   0.000000
    6       14.147920   0.000000
    7       18.113896   0.000000
    8       18.194576   0.000000
 
 -0.3500000E+00  0.4500000E+00  0.1500000E+00  0.1600000E-01
    1       -2.037092   1.000000
    2        0.243701   1.000000
    3        5.178083   1.000000
    4        7.387670   1.000000
    5       13.072693   0.000000
    6       14.717850   0.000000
    7       16.659629   0.000000
    8       18.012571   0.000000
 
 -0.2500000E+00  0.4500000E+00  0.1500000E+00  0.1600000E-01
    1       -1.554168   1.000000
    2        1.754296   1.000000
    3        4.625613   1.000000
    4        7.813462   1.000000
    5       10.094573   0.000000
    6       15.332140   0.000000
    7       15.781230   0.000000
    8       17.749260   0.000000
 
 -0.1500000E+00  0.4500000E+00  0.1500000E+00  0.8000000E-02
    1       -0.520800   1.000000
    2        3.332560   1.000000
    3        5.029574   1.000000
    4        6.940855   1.000000
    5        8.740271   0.995876
    6       13.242189   0.000000
    7       14.879566   0.000000
    8       16.611956   0.000000
 
 -0.4500000E+00 -0.4500000E+00  0.1500000E+00  0.8000000E-02
    1       -1.000181   1.000000
    2       -0.996506   1.000000
    3        6.162506   1.000000
    4        6.167512   1.000000
    5       13.204027   0.000000
    6       15.030800   0.000000
    7       16.024856   0.000000
    8       18.028115   0.000000
 
 -0.3500000E+00 -0.4500000E+00  0.1500000E+00  0.1600000E-01
    1       -0.635245   1.000000
    2        0.487939   1.000000
    3        5.420303   1.000000
    4        6.503271   1.000000
    5        9.900589   0.000000
    6       15.562903   0.000000
    7       16.402682   0.000000
    8       17.635259   0.000000
 
 -0.2500000E+00 -0.4500000E+00  0.1500000E+00  0.1600000E-01
    1        0.275663   1.000000
    2        2.415696   1.000000
    3        5.267201   1.000000
    4        6.595506   1.000000
    5        7.418451   1.000000
    6       13.432393   0.000000
    7       15.984980   0.000000
    8       17.668058   0.000000
 
 -0.1500000E+00 -0.4500000E+00  0.1500000E+00  0.8000000E-02
    1        1.707721   1.000000
    2        3.683222   1.000000
    3        4.588906   1.000000
    4        6.063631   1.000000
    5        8.488184   0.999995
    6       11.577513   0.000000
    7       12.974393   0.000000
    8       17.144192   0.000000
 
 -0.3500000E+00 -0.3500000E+00  0.1500000E+00  0.8000000E-02
    1        1.261891   1.000000
    2        1.289703   1.000000
    3        6.036451   1.000000
    4        6.155137   1.000000
    5        6.700460   1.000000
    6       13.406672   0.000000
    7       17.350772   0.000000
    8       17.382284   0.000000
 
 -0.2500000E+00 -0.3500000E+00  0.1500000E+00  0.1600000E-01
    1        2.535653   1.000000
    2        3.350492   1.000000
    3        3.938361   1.000000
    4        6.423556   1.000000
    5        7.379581   1.000000
    6       11.721533   0.000000
    7       14.162823   0.000000
    8       15.996206   0.000000
 
 -0.1500000E+00 -0.3500000E+00  0.1500000E+00  0.8000000E-02
    1        1.092313   1.000000
    2        4.496487   1.000000
    3        6.046052   1.000000
    4        7.440535   1.000000
    5        8.433591   0.999999
    6       10.717918   0.000000
    7       11.621877   0.000000
    8       14.259853   0.000000
 
 -0.2500000E+00 -0.2500000E+00  0.1500000E+00  0.8000000E-02
    1        0.979324   1.000000
    2        5.353913   1.000000
    3        5.405842   1.000000
    4        7.702391   1.000000
    5        7.967381   1.000000
    6       10.657986   0.000000
    7       12.522682   0.000000
    8       13.118293   0.000000
 
 -0.1500000E+00 -0.2500000E+00  0.1500000E+00  0.8000000E-02
    1       -1.024688   1.000000
    2        7.492706   1.000000
    3        7.783802   1.000000
    4        8.382747   1.000000
    5        8.487118   0.999995
    6       10.566016   0.000000
    7       11.543864   0.000000
    8       12.103271   0.000000
 
 -0.1500000E+00 -0.1500000E+00  0.1500000E+00  0.2000000E-02
    1       -2.618291   1.000000
    2        7.912670   1.000000
    3        7.912699   1.000000
    4        7.923919   1.000000
    5       10.724063   0.000000
    6       11.182951   0.000000
    7       12.677567   0.000000
    8       13.474258   0.000000
 
  0.2500000E+00  0.2500000E+00  0.2500000E+00  0.2000000E-02
    1        3.415137   1.000000
    2        3.415164   1.000000
    3        4.076397   1.000000
    4        4.076400   1.000000
    5       13.289394   0.000000
    6       13.289407   0.000000
    7       15.070650   0.000000
    8       15.070677   0.000000
 
 -0.2500000E+00  0.2500000E+00  0.2500000E+00  0.4000000E-02
    1       -3.134994   1.000000
    2        1.945087   1.000000
    3        3.644954   1.000000
    4        8.597215   0.999871
    5       12.963154   0.000000
    6       16.212022   0.000000
    7       17.423145   0.000000
    8       18.333507   0.000000
 
 -0.3500000E+00  0.3500000E+00  0.2500000E+00  0.8000000E-02
    1       -2.434584   1.000000
    2        0.890946   1.000000
    3        3.794867   1.000000
    4        7.036048   1.000000
    5       14.187414   0.000000
    6       16.819848   0.000000
    7       17.843587   0.000000
    8       18.543673   0.000000
 
 -0.2500000E+00  0.3500000E+00  0.2500000E+00  0.8000000E-02
    1       -2.273037   1.000000
    2        1.631981   1.000000
    3        3.375125   1.000000
    4        7.183462   1.000000
    5       13.161347   0.000000
    6       15.528251   0.000000
    7       18.033808   0.000000
    8       19.006410   0.000000
 
 -0.4500000E+00  0.4500000E+00  0.2500000E+00  0.8000000E-02
    1       -1.511323   1.000000
    2       -0.383188   1.000000
    3        4.597821   1.000000
    4        5.698816   1.000000
    5       15.150395   0.000000
    6       16.037353   0.000000
    7       17.912286   0.000000
    8       18.121732   0.000000
 
 -0.3500000E+00  0.4500000E+00  0.2500000E+00  0.1600000E-01
    1       -1.468233   1.000000
    2        0.698480   1.000000
    3        3.624133   1.000000
    4        5.742494   1.000000
    5       13.074693   0.000000
    6       16.633659   0.000000
    7       18.764106   0.000000
    8       19.217404   0.000000
 
 -0.2500000E+00  0.4500000E+00  0.2500000E+00  0.8000000E-02
    1       -0.869892   1.000000
    2        1.866523   1.000000
    3        3.625665   1.000000
    4        6.293939   1.000000
    5        9.698418   0.000018
    6       16.563869   0.000000
    7       17.516591   0.000000
    8       18.130578   0.000000
 
 -0.4500000E+00 -0.4500000E+00  0.2500000E+00  0.8000000E-02
    1       -0.460236   1.000000
    2       -0.455210   1.000000
    3        4.533209   1.000000
    4        4.534119   1.000000
    5       13.013234   0.000000
    6       17.360731   0.000000
    7       18.118725   0.000000
    8       19.247058   0.000000
 
 -0.3500000E+00 -0.4500000E+00  0.2500000E+00  0.1600000E-01
    1        0.020710   1.000000
    2        1.055837   1.000000
    3        3.977973   1.000000
    4        4.990376   1.000000
    5        9.496634   0.003399
    6       16.973898   0.000000
    7       18.470076   0.000000
    8       19.165338   0.000000
 
 -0.2500000E+00 -0.4500000E+00  0.2500000E+00  0.8000000E-02
    1        1.042407   1.000000
    2        2.637002   1.000000
    3        4.399280   1.000000
    4        5.880021   1.000000
    5        6.423118   1.000000
    6       14.613182   0.000000
    7       16.181731   0.000000
    8       18.241537   0.000000
 
 -0.3500000E+00 -0.3500000E+00  0.2500000E+00  0.8000000E-02
    1        1.931151   1.000000
    2        1.973633   1.000000
    3        4.831818   1.000000
    4        4.856407   1.000000
    5        6.257857   1.000000
    6       14.942349   0.000000
    7       17.083752   0.000000
    8       17.477066   0.000000
 
 -0.2500000E+00 -0.3500000E+00  0.2500000E+00  0.8000000E-02
    1        2.992830   1.000000
    2        3.591329   1.000000
    3        4.163734   1.000000
    4        5.664082   1.000000
    5        6.230527   1.000000
    6       12.989950   0.000000
    7       14.171601   0.000000
    8       15.173675   0.000000
 
 -0.2500000E+00 -0.2500000E+00  0.2500000E+00  0.2000000E-02
    1        0.865600   1.000000
    2        5.793233   1.000000
    3        5.886097   1.000000
    4        7.302428   1.000000
    5        7.302444   1.000000
    6       11.598677   0.000000
    7       12.392488   0.000000
    8       12.392506   0.000000
 