unknown system                          
   1.00000000000000     
     0.000000    2.762801    2.762801
     2.762801    0.000000    2.762801
     2.762801    2.762801    0.000000
   Si
     2
Direct
  0.500000  0.500000  0.500000
  0.750000  0.750000  0.750000
 
   36   36   36
 0.82601145976E+00 0.84150567700E+00 0.88907676805E+00 0.97183876860E+00 0.10945499000E+01
 0.12630977611E+01 0.14839522160E+01 0.17635685669E+01 0.21075541980E+01 0.25193210602E+01
 0.29980609125E+01 0.35362269394E+01 0.41171649809E+01 0.47138693569E+01 0.52897940953E+01
 0.58021545530E+01 0.62073904816E+01 0.64677527216E+01 0.65575704225E+01 0.64677442253E+01
 0.62073809725E+01 0.58021607185E+01 0.52898347279E+01 0.47139484727E+01 0.41172618484E+01
 0.35363066192E+01 0.29980976222E+01 0.25193134285E+01 0.21075209478E+01 0.17635325900E+01
 0.14839275851E+01 0.12630870208E+01 0.10945488676E+01 0.97184210969E+00 0.88908072496E+00
 0.84150814158E+00 0.84150567700E+00 0.86852877542E+00 0.92432931848E+00 0.10122128271E+01
 0.11366528681E+01 0.13028069008E+01 0.15159634942E+01 0.17808684054E+01 0.21007865878E+01
 0.24761581598E+01 0.29028621327E+01 0.33703836393E+01 0.38604681208E+01 0.43469753287E+01
 0.47974883898E+01 0.51767826729E+01 0.54516685746E+01 0.55962256221E+01 0.55962264736E+01
 0.54516726409E+01 0.51767970366E+01 0.47975243001E+01 0.43470348745E+01 0.38605331916E+01
 0.33704253084E+01 0.29028632378E+01 0.24761246741E+01 0.21007389353E+01 0.17808264372E+01
 0.15159381384E+01 0.13027988902E+01 0.11366550016E+01 0.10122154338E+01 0.92432715791E+00
 0.86852373785E+00 0.84150309503E+00 0.88907676805E+00 0.92432931848E+00 0.98542907865E+00
 0.10756279555E+01 0.11989605764E+01 0.13597817541E+01 0.15621963896E+01 0.18093231861E+01
 0.21023133942E+01 0.24391116495E+01 0.28131024443E+01 0.32119713661E+01 0.36172355552E+01
 0.40048869537E+01 0.43474014341E+01 0.46170122086E+01 0.47897253863E+01 0.48492263833E+01
 0.47897293916E+01 0.46170228697E+01 0.43474226504E+01 0.40049169479E+01 0.36172607079E+01
 0.32119728253E+01 0.28130722746E+01 0.24390601127E+01 0.21022598437E+01 0.18092832117E+01
 0.15621770167E+01 0.13597820497E+01 0.11989720337E+01 0.10756375946E+01 0.98542786693E+00
 0.92431891197E+00 0.88906713263E+00 0.87756464601E+00 0.97183876860E+00 0.10122128271E+01
 0.10756279555E+01 0.11651619564E+01 0.12843581954E+01 0.14367689547E+01 0.16253659896E+01
 0.18517794749E+01 0.21153584354E+01 0.24121356577E+01 0.27338998041E+01 0.30676663585E+01
 0.33958507648E+01 0.36973693975E+01 0.39497265671E+01 0.41318915475E+01 0.42274729179E+01
 0.42274728435E+01 0.41318929283E+01 0.39497309890E+01 0.36973728444E+01 0.33958434301E+01
 0.30676402605E+01 0.27338569748E+01 0.24120878528E+01 0.21153192148E+01 0.18517576362E+01
 0.16253645240E+01 0.14367853816E+01 0.12843834100E+01 0.11651822148E+01 0.10756328581E+01
 0.10122028408E+01 0.97182443548E+00 0.95223874610E+00 0.95224524979E+00 0.10945499000E+01
 0.11366528681E+01 0.11989605764E+01 0.12843581954E+01 0.13959158560E+01 0.15364283307E+01
 0.17078246996E+01 0.19104445604E+01 0.21422295182E+01 0.23979546789E+01 0.26686966537E+01
 0.29417584400E+01 0.32012298206E+01 0.34292730422E+01 0.36080948171E+01 0.37223761441E+01
 0.37617008634E+01 0.37223730587E+01 0.36080898449E+01 0.34292633113E+01 0.32012091437E+01
 0.29417260328E+01 0.26686616246E+01 0.23979292533E+01 0.21422203313E+01 0.19104521035E+01
 0.17078472612E+01 0.15364619941E+01 0.13959516293E+01 0.12843839706E+01 0.11989684982E+01
 0.11366446071E+01 0.10945348924E+01 0.10702974833E+01 0.10624005078E+01 0.10703083636E+01
 0.12630977611E+01 0.13028069008E+01 0.13597817541E+01 0.14367689547E+01 0.15364283307E+01
 0.16608775686E+01 0.18111443342E+01 0.19865502257E+01 0.21840944611E+01 0.23979546116E+01
 0.26192611531E+01 0.28363006391E+01 0.30352532353E+01 0.32014940206E+01 0.33213770502E+01
 0.33842489164E+01 0.33842474216E+01 0.33213724297E+01 0.32014843443E+01 0.30352354538E+01
 0.28362772146E+01 0.26192430972E+01 0.23979533895E+01 0.21841125208E+01 0.19865821665E+01
 0.18111839170E+01 0.16609189721E+01 0.15364631086E+01 0.14367883472E+01 0.13597833021E+01
 0.13027961190E+01 0.12630832305E+01 0.12381835934E+01 0.12262378666E+01 0.12262421204E+01
 0.12381950044E+01 0.14839522160E+01 0.15159634942E+01 0.15621963896E+01 0.16253659896E+01
 0.17078246996E+01 0.18111443342E+01 0.19356648554E+01 0.20800357452E+01 0.22408039687E+01
 0.24121356407E+01 0.25857876889E+01 0.27514468578E+01 0.28975173692E+01 0.30123658596E+01
 0.30859072346E+01 0.31112408524E+01 0.30859072247E+01 0.30123629915E+01 0.28975089830E+01
 0.27514355508E+01 0.25857826562E+01 0.24121461357E+01 0.22408314583E+01 0.20800739501E+01
 0.19357054765E+01 0.18111793818E+01 0.17078456710E+01 0.16253674131E+01 0.15621817379E+01
 0.15159437809E+01 0.14839370420E+01 0.14634632916E+01 0.14522221970E+01 0.14486594948E+01
 0.14522253402E+01 0.14634714448E+01 0.17635685669E+01 0.17808684054E+01 0.18093231861E+01
 0.18517794749E+01 0.19104445604E+01 0.19865502257E+01 0.20800357452E+01 0.21892568686E+01
 0.23107503353E+01 0.24391118605E+01 0.25670787594E+01 0.26859250106E+01 0.27862479463E+01
 0.28591331583E+01 0.28975329483E+01 0.28975355422E+01 0.28591380453E+01 0.27862502386E+01
 0.26859243045E+01 0.25670800434E+01 0.24391204903E+01 0.23107677682E+01 0.21892806474E+01
 0.20800605732E+01 0.19865676061E+01 0.19104447523E+01 0.18517585917E+01 0.18092890035E+01
 0.17808364770E+01 0.17635507131E+01 0.17543050943E+01 0.17501320297E+01 0.17486915191E+01
 0.17486892478E+01 0.17501284093E+01 0.17543083171E+01 0.21075541980E+01 0.21007865878E+01
 0.21023133942E+01 0.21153584354E+01 0.21422295182E+01 0.21840944611E+01 0.22408039687E+01
 0.23107503353E+01 0.23907744733E+01 0.24761584019E+01 0.25607812801E+01 0.26375458914E+01
 0.26991452303E+01 0.27391178783E+01 0.27529821668E+01 0.27391275202E+01 0.26991581117E+01
 0.26375562088E+01 0.25607872190E+01 0.24761594797E+01 0.23907707226E+01 0.23107444968E+01
 0.22407989719E+01 0.21840865497E+01 0.21422089202E+01 0.21153206490E+01 0.21022673454E+01
 0.21007490118E+01 0.21075367645E+01 0.21187923500E+01 0.21305312930E+01 0.21392193561E+01
 0.21424042097E+01 0.21392090019E+01 0.21305187709E+01 0.21187899434E+01 0.25193210602E+01
 0.24761581598E+01 0.24391116495E+01 0.24121356577E+01 0.23979546789E+01 0.23979546116E+01
 0.24121356407E+01 0.24391118605E+01 0.24761584019E+01 0.25193211590E+01 0.25636491513E+01
 0.26036435010E+01 0.26339683907E+01 0.26503364321E+01 0.26503445242E+01 0.26339882400E+01
 0.26036649853E+01 0.25636613660E+01 0.25193150988E+01 0.24761309103E+01 0.24390701472E+01
 0.24120930293E+01 0.23979176192E+01 0.23979183192E+01 0.24120946900E+01 0.24390719731E+01
 0.24761324502E+01 0.25193161466E+01 0.25636616697E+01 0.26036645345E+01 0.26339874843E+01
 0.26503438733E+01 0.26503358360E+01 0.26339677320E+01 0.26036429926E+01 0.25636489648E+01
 0.29980609125E+01 0.29028621327E+01 0.28131024443E+01 0.27338998041E+01 0.26686966537E+01
 0.26192611531E+01 0.25857876889E+01 0.25670787594E+01 0.25607812801E+01 0.25636491513E+01
 0.25718560008E+01 0.25814292990E+01 0.25888327545E+01 0.25916028642E+01 0.25888514312E+01
 0.25814569121E+01 0.25718746832E+01 0.25636393178E+01 0.25607336177E+01 0.25670035568E+01
 0.25857092232E+01 0.26191991429E+01 0.26686547143E+01 0.27338730277E+01 0.28130904322E+01
 0.29028683705E+01 0.29980833301E+01 0.30920941706E+01 0.31771892683E+01 0.32453967677E+01
 0.32896314345E+01 0.33049614640E+01 0.32896168888E+01 0.32453725715E+01 0.31771601135E+01
 0.30920644064E+01 0.35362269394E+01 0.33703836393E+01 0.32119713661E+01 0.30676663585E+01
 0.29417584400E+01 0.28363006391E+01 0.27514468578E+01 0.26859250106E+01 0.26375458914E+01
 0.26036435010E+01 0.25814292990E+01 0.25683273398E+01 0.25623331560E+01 0.25623432940E+01
 0.25683521439E+01 0.25814503199E+01 0.26036334222E+01 0.26374866555E+01 0.26858264925E+01
 0.27513432054E+01 0.28362251518E+01 0.29417236726E+01 0.30676669816E+01 0.32119983248E+01
 0.33704292550E+01 0.35362801703E+01 0.37005844506E+01 0.38525574545E+01 0.39805335134E+01
 0.40733890925E+01 0.41222791288E+01 0.41222762507E+01 0.40733800703E+01 0.39805155981E+01
 0.38525255277E+01 0.37005375608E+01 0.41171649809E+01 0.38604681208E+01 0.36172355552E+01
 0.33958507648E+01 0.32012298206E+01 0.30352532353E+01 0.28975173692E+01 0.27862479463E+01
 0.26991452303E+01 0.26339683907E+01 0.25888327545E+01 0.25623331560E+01 0.25536036244E+01
 0.25623487994E+01 0.25888498468E+01 0.26339582083E+01 0.26990821466E+01 0.27861378113E+01
 0.28974013896E+01 0.30351768807E+01 0.32012111960E+01 0.33958798218E+01 0.36172935486E+01
 0.38605388298E+01 0.41172332074E+01 0.43755191975E+01 0.46205959873E+01 0.48358636794E+01
 0.50046857385E+01 0.51126268314E+01 0.51497885404E+01 0.51126356322E+01 0.50046951977E+01
 0.48358611525E+01 0.46205705547E+01 0.43754682305E+01 0.47138693569E+01 0.43469753287E+01
 0.40048869537E+01 0.36973693975E+01 0.34292730422E+01 0.32014940206E+01 0.30123658596E+01
 0.28591331583E+01 0.27391178783E+01 0.26503364321E+01 0.25916028642E+01 0.25623432940E+01
 0.25623487994E+01 0.25916112157E+01 0.26503226579E+01 0.27390532222E+01 0.28590177754E+01
 0.30122439737E+01 0.32014217713E+01 0.34292718964E+01 0.36974186755E+01 0.40049547700E+01
 0.43470420717E+01 0.47139247538E+01 0.50906417134E+01 0.54575925249E+01 0.57919808577E+01
 0.60700413159E+01 0.62698584689E+01 0.63744378519E+01 0.63744488832E+01 0.62698855986E+01
 0.60700704042E+01 0.57919967552E+01 0.54575843683E+01 0.50906068922E+01 0.52897940953E+01
 0.47974883898E+01 0.43474014341E+01 0.39497265671E+01 0.36080948171E+01 0.33213770502E+01
 0.30859072346E+01 0.28975329483E+01 0.27529821668E+01 0.26503445242E+01 0.25888514312E+01
 0.25683521439E+01 0.25888498468E+01 0.26503226579E+01 0.27529136030E+01 0.28974142468E+01
 0.30857810877E+01 0.33213063208E+01 0.36081053476E+01 0.39497872194E+01 0.43474634069E+01
 0.47975282188E+01 0.52898135254E+01 0.58066973108E+01 0.63235192084E+01 0.68103229921E+01
 0.72346721935E+01 0.75651834374E+01 0.77754123210E+01 0.78475888721E+01 0.77754326478E+01
 0.75652173044E+01 0.72347094663E+01 0.68103529549E+01 0.63235335880E+01 0.58066942629E+01
 0.58021545530E+01 0.51767826729E+01 0.46170122086E+01 0.41318915475E+01 0.37223761441E+01
 0.33842489164E+01 0.31112408524E+01 0.28975355422E+01 0.27391275202E+01 0.26339882400E+01
 0.25814569121E+01 0.25814503199E+01 0.26339582083E+01 0.27390532222E+01 0.28974142468E+01
 0.31111128039E+01 0.33841784278E+01 0.37223927239E+01 0.41319585728E+01 0.46170660985E+01
 0.51767928059E+01 0.58021333047E+01 0.64741020395E+01 0.71636311782E+01 0.78334177727E+01
 0.84413120734E+01 0.89446408844E+01 0.93050027126E+01 0.94931329861E+01 0.94931324589E+01
 0.93050048579E+01 0.89446534827E+01 0.84413385440E+01 0.78334523597E+01 0.71636660381E+01
 0.64741339170E+01 0.62073904816E+01 0.54516685746E+01 0.47897253863E+01 0.42274729179E+01
 0.37617008634E+01 0.33842474216E+01 0.30859072247E+01 0.28591380453E+01 0.26991581117E+01
 0.26036649853E+01 0.25718746832E+01 0.26036334222E+01 0.26990821466E+01 0.28590177754E+01
 0.30857810877E+01 0.33841784278E+01 0.37617208044E+01 0.42275444616E+01 0.47897760948E+01
 0.54516599325E+01 0.62073400330E+01 0.70385968546E+01 0.79137546841E+01 0.87892332281E+01
 0.96132539518E+01 0.10330789399E+02 0.10889166661E+02 0.11244140647E+02 0.11365955265E+02
 0.11244094007E+02 0.10889103785E+02 0.10330748201E+02 0.96132521171E+01 0.87892627109E+01
 0.79138020170E+01 0.70386543874E+01 0.64677527216E+01 0.55962256221E+01 0.48492263833E+01
 0.42274728435E+01 0.37223730587E+01 0.33213724297E+01 0.30123629915E+01 0.27862502386E+01
 0.26375562088E+01 0.25636613660E+01 0.25636393178E+01 0.26374866555E+01 0.27861378113E+01
 0.30122439737E+01 0.33213063208E+01 0.37223927239E+01 0.42275444616E+01 0.48492762216E+01
 0.55962100730E+01 0.64676895469E+01 0.74489436720E+01 0.85085581331E+01 0.95992218486E+01
 0.10661303213E+02 0.11627972049E+02 0.12431078611E+02 0.13008047532E+02 0.13310021675E+02
 0.13309963556E+02 0.13007903064E+02 0.12430918742E+02 0.11627862911E+02 0.10661266638E+02
 0.95992393946E+01 0.85086073088E+01 0.74490120701E+01 0.65575704225E+01 0.55962264736E+01
 0.47897293916E+01 0.41318929283E+01 0.36080898449E+01 0.32014843443E+01 0.28975089830E+01
 0.26859243045E+01 0.25607872190E+01 0.25193150988E+01 0.25607336177E+01 0.26858264925E+01
 0.28974013896E+01 0.32014217713E+01 0.36081053476E+01 0.41319585728E+01 0.47897760948E+01
 0.55962100730E+01 0.65575075277E+01 0.76651060788E+01 0.88913599535E+01 0.10189002892E+02
 0.11494119509E+02 0.12730895022E+02 0.13816876830E+02 0.14669502547E+02 0.15215622202E+02
 0.15403738610E+02 0.15215468939E+02 0.14669258797E+02 0.13816638613E+02 0.12730737206E+02
 0.11494056241E+02 0.10189004419E+02 0.88913992971E+01 0.76651705995E+01 0.64677442253E+01
 0.54516726409E+01 0.46170228697E+01 0.39497309890E+01 0.34292633113E+01 0.30352354538E+01
 0.27514355508E+01 0.25670800434E+01 0.24761594797E+01 0.24761309103E+01 0.25670035568E+01
 0.27513432054E+01 0.30351768807E+01 0.34292718964E+01 0.39497872194E+01 0.46170660985E+01
 0.54516599325E+01 0.64676895469E+01 0.76651060788E+01 0.90235329621E+01 0.10500060234E+02
 0.12031249098E+02 0.13537199644E+02 0.14925450723E+02 0.16094640060E+02 0.16940646244E+02
 0.17384096135E+02 0.17384017833E+02 0.16940433806E+02 0.16094360588E+02 0.14925194985E+02
 0.13537031271E+02 0.12031171235E+02 0.10500041361E+02 0.90235531339E+01 0.76651574722E+01
 0.62073809725E+01 0.51767970366E+01 0.43474226504E+01 0.36973728444E+01 0.32012091437E+01
 0.28362772146E+01 0.25857826562E+01 0.24391204903E+01 0.23907707226E+01 0.24390701472E+01
 0.25857092232E+01 0.28362251518E+01 0.32012111960E+01 0.36974186755E+01 0.43474634069E+01
 0.51767928059E+01 0.62073400330E+01 0.74489436720E+01 0.88913599535E+01 0.10500060234E+02
 0.12216957833E+02 0.13963841337E+02 0.15644916232E+02 0.17141445148E+02 0.18319486597E+02
 0.19072049327E+02 0.19330767416E+02 0.19071946383E+02 0.18319291877E+02 0.17141202563E+02
 0.15644694084E+02 0.13963686557E+02 0.12216871012E+02 0.10500021189E+02 0.88913611383E+01
 0.74489797191E+01 0.58021607185E+01 0.47975243001E+01 0.40049169479E+01 0.33958434301E+01
 0.29417260328E+01 0.26192430972E+01 0.24121461357E+01 0.23107677682E+01 0.23107444968E+01
 0.24120930293E+01 0.26191991429E+01 0.29417236726E+01 0.33958798218E+01 0.40049547700E+01
 0.47975282188E+01 0.58021333047E+01 0.70385968546E+01 0.85085581331E+01 0.10189002892E+02
 0.12031249098E+02 0.13963841337E+02 0.15894522823E+02 0.17695845787E+02 0.19210893882E+02
 0.20305144001E+02 0.20879246156E+02 0.20879229999E+02 0.20305079015E+02 0.19210759258E+02
 0.17695660836E+02 0.15894340351E+02 0.13963701717E+02 0.12031158750E+02 0.10188953922E+02
 0.85085494906E+01 0.70386212814E+01 0.52898347279E+01 0.43470348745E+01 0.36172607079E+01
 0.30676402605E+01 0.26686616246E+01 0.23979533895E+01 0.22408314583E+01 0.21892806474E+01
 0.22407989719E+01 0.23979176192E+01 0.26686547143E+01 0.30676669816E+01 0.36172935486E+01
 0.43470420717E+01 0.52898135254E+01 0.64741020395E+01 0.79137546841E+01 0.95992218486E+01
 0.11494119509E+02 0.13537199644E+02 0.15644916232E+02 0.17695845787E+02 0.19519387923E+02
 0.20957073796E+02 0.21879254982E+02 0.22197329248E+02 0.21879276516E+02 0.20957061338E+02
 0.19519296924E+02 0.17695693173E+02 0.15644757230E+02 0.13537074079E+02 0.11494035567E+02
 0.95991761109E+01 0.79137477428E+01 0.64741238341E+01 0.47139484727E+01 0.38605331916E+01
 0.32119728253E+01 0.27338569748E+01 0.23979292533E+01 0.21841125208E+01 0.20800739501E+01
 0.20800605732E+01 0.21840865497E+01 0.23979183192E+01 0.27338730277E+01 0.32119983248E+01
 0.38605388298E+01 0.47139247538E+01 0.58066973108E+01 0.71636311782E+01 0.87892332281E+01
 0.10661303213E+02 0.12730895022E+02 0.14925450723E+02 0.17141445148E+02 0.19210893882E+02
 0.20957073796E+02 0.22225426457E+02 0.22894274809E+02 0.22894314710E+02 0.22225498334E+02
 0.20957087991E+02 0.19210811558E+02 0.17141304930E+02 0.14925312090E+02 0.12730787842E+02
 0.10661230790E+02 0.87891978698E+01 0.71636364353E+01 0.58067279731E+01 0.41172618484E+01
 0.33704253084E+01 0.28130722746E+01 0.24120878528E+01 0.21422203313E+01 0.19865821665E+01
 0.19357054765E+01 0.19865676061E+01 0.21422089202E+01 0.24120946900E+01 0.28130904322E+01
 0.33704292550E+01 0.41172332074E+01 0.50906417134E+01 0.63235192084E+01 0.78334177727E+01
 0.96132539518E+01 0.11627972049E+02 0.13816876830E+02 0.16094640060E+02 0.18319486597E+02
 0.20305144001E+02 0.21879254982E+02 0.22894274809E+02 0.23245510190E+02 0.22894371131E+02
 0.21879351952E+02 0.20305153551E+02 0.18319405609E+02 0.16094523334E+02 0.13816766273E+02
 0.11627880663E+02 0.96131913191E+01 0.78334012959E+01 0.63235500733E+01 0.50906902820E+01
 0.35363066192E+01 0.29028632378E+01 0.24390601127E+01 0.21153192148E+01 0.19104521035E+01
 0.18111839170E+01 0.18111793818E+01 0.19104447523E+01 0.21153206490E+01 0.24390719731E+01
 0.29028683705E+01 0.35362801703E+01 0.43755191975E+01 0.54575925249E+01 0.68103229921E+01
 0.84413120734E+01 0.10330789399E+02 0.12431078611E+02 0.14669502547E+02 0.16940646244E+02
 0.19072049327E+02 0.20879246156E+02 0.22197329248E+02 0.22894314710E+02 0.22894371131E+02
 0.22197447277E+02 0.20879330053E+02 0.19072053765E+02 0.16940593773E+02 0.14669425736E+02
 0.12430990715E+02 0.10330707634E+02 0.84412711876E+01 0.68103465611E+01 0.54576599483E+01
 0.43755821953E+01 0.29980976222E+01 0.24761246741E+01 0.21022598437E+01 0.18517576362E+01
 0.17078472612E+01 0.16609189721E+01 0.17078456710E+01 0.18517585917E+01 0.21022673454E+01
 0.24761324502E+01 0.29980833301E+01 0.37005844506E+01 0.46205959873E+01 0.57919808577E+01
 0.72346721935E+01 0.89446408844E+01 0.10889166661E+02 0.13008047532E+02 0.15215622202E+02
 0.17384096135E+02 0.19330767416E+02 0.20879229999E+02 0.21879276516E+02 0.22225498334E+02
 0.21879351952E+02 0.20879330053E+02 0.19330843120E+02 0.17384132717E+02 0.15215618389E+02
 0.13007998880E+02 0.10889089338E+02 0.89445841886E+01 0.72346850351E+01 0.57920607435E+01
 0.46206905136E+01 0.37006434532E+01 0.25193134285E+01 0.21007389353E+01 0.18092832117E+01
 0.16253645240E+01 0.15364619941E+01 0.15364631086E+01 0.16253674131E+01 0.18092890035E+01
 0.21007490118E+01 0.25193161466E+01 0.30920941706E+01 0.38525574545E+01 0.48358636794E+01
 0.60700413159E+01 0.75651834374E+01 0.93050027126E+01 0.11244140647E+02 0.13310021675E+02
 0.15403738610E+02 0.17384017833E+02 0.19071946383E+02 0.20305079015E+02 0.20957061338E+02
 0.20957087991E+02 0.20305153551E+02 0.19072053765E+02 0.17384132717E+02 0.15403822385E+02
 0.13310037784E+02 0.11244092384E+02 0.93049456187E+01 0.75651868083E+01 0.60701254749E+01
 0.48359820732E+01 0.38526460551E+01 0.30921273947E+01 0.21075209478E+01 0.17808264372E+01
 0.15621770167E+01 0.14367853816E+01 0.13959516293E+01 0.14367883472E+01 0.15621817379E+01
 0.17808364770E+01 0.21075367645E+01 0.25636616697E+01 0.31771892683E+01 0.39805335134E+01
 0.50046857385E+01 0.62698584689E+01 0.77754123210E+01 0.94931329861E+01 0.11365955265E+02
 0.13309963556E+02 0.15215468939E+02 0.16940433806E+02 0.18319291877E+02 0.19210759258E+02
 0.19519296924E+02 0.19210811558E+02 0.18319405609E+02 0.16940593773E+02 0.15215618389E+02
 0.13310037784E+02 0.11365940410E+02 0.94930833750E+01 0.77754078327E+01 0.62699370498E+01
 0.50048133666E+01 0.39806417895E+01 0.31772370928E+01 0.25636602481E+01 0.17635325900E+01
 0.15159381384E+01 0.13597820497E+01 0.12843834100E+01 0.12843839706E+01 0.13597833021E+01
 0.15159437809E+01 0.17635507131E+01 0.21187923500E+01 0.26036645345E+01 0.32453967677E+01
 0.40733890925E+01 0.51126268314E+01 0.63744378519E+01 0.78475888721E+01 0.94931324589E+01
 0.11244094007E+02 0.13007903064E+02 0.14669258797E+02 0.16094360588E+02 0.17141202563E+02
 0.17695660836E+02 0.17695693173E+02 0.17141304930E+02 0.16094523334E+02 0.14669425736E+02
 0.13007998880E+02 0.11244092384E+02 0.94930833750E+01 0.78475751118E+01 0.63745049179E+01
 0.51127504224E+01 0.40735041462E+01 0.32454533935E+01 0.26036623881E+01 0.21187668259E+01
 0.14839275851E+01 0.13027988902E+01 0.11989720337E+01 0.11651822148E+01 0.11989684982E+01
 0.13027961190E+01 0.14839370420E+01 0.17543050943E+01 0.21305312930E+01 0.26339874843E+01
 0.32896314345E+01 0.41222791288E+01 0.51497885404E+01 0.63744488832E+01 0.77754326478E+01
 0.93050048579E+01 0.10889103785E+02 0.12430918742E+02 0.13816638613E+02 0.14925194985E+02
 0.15644694084E+02 0.15894340351E+02 0.15644757230E+02 0.14925312090E+02 0.13816766273E+02
 0.12430990715E+02 0.10889089338E+02 0.93049456187E+01 0.77754078327E+01 0.63745049179E+01
 0.51499052324E+01 0.41223952994E+01 0.32896944495E+01 0.26339871240E+01 0.21304974908E+01
 0.17542756953E+01 0.12630870208E+01 0.11366550016E+01 0.10756375946E+01 0.10756328581E+01
 0.11366446071E+01 0.12630832305E+01 0.14634632916E+01 0.17501320297E+01 0.21392193561E+01
 0.26503438733E+01 0.33049614640E+01 0.41222762507E+01 0.51126356322E+01 0.62698855986E+01
 0.75652173044E+01 0.89446534827E+01 0.10330748201E+02 0.11627862911E+02 0.12730737206E+02
 0.13537031271E+02 0.13963686557E+02 0.13963701717E+02 0.13537074079E+02 0.12730787842E+02
 0.11627880663E+02 0.10330707634E+02 0.89445841886E+01 0.75651868083E+01 0.62699370498E+01
 0.51127504224E+01 0.41223952994E+01 0.33050320291E+01 0.26503502348E+01 0.21391839336E+01
 0.17500929011E+01 0.14634457561E+01 0.10945488676E+01 0.10122154338E+01 0.98542786693E+00
 0.10122028408E+01 0.10945348924E+01 0.12381835934E+01 0.14522221970E+01 0.17486915191E+01
 0.21424042097E+01 0.26503358360E+01 0.32896168888E+01 0.40733800703E+01 0.50046951977E+01
 0.60700704042E+01 0.72347094663E+01 0.84413385440E+01 0.96132521171E+01 0.10661266638E+02
 0.11494056241E+02 0.12031171235E+02 0.12216871012E+02 0.12031158750E+02 0.11494035567E+02
 0.10661230790E+02 0.96131913191E+01 0.84412711876E+01 0.72346850351E+01 0.60701254749E+01
 0.50048133666E+01 0.40735041462E+01 0.32896944495E+01 0.26503502348E+01 0.21423732590E+01
 0.17486485091E+01 0.14521953456E+01 0.12381820910E+01 0.97184210969E+00 0.92432715791E+00
 0.92431891197E+00 0.97182443548E+00 0.10702974833E+01 0.12262378666E+01 0.14486594948E+01
 0.17486892478E+01 0.21392090019E+01 0.26339677320E+01 0.32453725715E+01 0.39805155981E+01
 0.48358611525E+01 0.57919967552E+01 0.68103529549E+01 0.78334523597E+01 0.87892627109E+01
 0.95992393946E+01 0.10189004419E+02 0.10500041361E+02 0.10500021189E+02 0.10188953922E+02
 0.95991761109E+01 0.87891978698E+01 0.78334012959E+01 0.68103465611E+01 0.57920607435E+01
 0.48359820732E+01 0.39806417895E+01 0.32454533935E+01 0.26339871240E+01 0.21391839336E+01
 0.17486485091E+01 0.14486277038E+01 0.12262281755E+01 0.10703083828E+01 0.88908072496E+00
 0.86852373785E+00 0.88906713263E+00 0.95223874610E+00 0.10624005078E+01 0.12262421204E+01
 0.14522253402E+01 0.17501284093E+01 0.21305187709E+01 0.26036429926E+01 0.31771601135E+01
 0.38525255277E+01 0.46205705547E+01 0.54575843683E+01 0.63235335880E+01 0.71636660381E+01
 0.79138020170E+01 0.85086073088E+01 0.88913992971E+01 0.90235531339E+01 0.88913611383E+01
 0.85085494906E+01 0.79137477428E+01 0.71636364353E+01 0.63235500733E+01 0.54576599483E+01
 0.46206905136E+01 0.38526460551E+01 0.31772370928E+01 0.26036623881E+01 0.21304974908E+01
 0.17500929011E+01 0.14521953456E+01 0.12262281755E+01 0.10624049810E+01 0.95225464783E+00
 0.84150814158E+00 0.84150309503E+00 0.87756464601E+00 0.95224524979E+00 0.10703083636E+01
 0.12381950044E+01 0.14634714448E+01 0.17543083171E+01 0.21187899434E+01 0.25636489648E+01
 0.30920644064E+01 0.37005375608E+01 0.43754682305E+01 0.50906068922E+01 0.58066942629E+01
 0.64741339170E+01 0.70386543874E+01 0.74490120701E+01 0.76651705995E+01 0.76651574722E+01
 0.74489797191E+01 0.70386212814E+01 0.64741238341E+01 0.58067279731E+01 0.50906902820E+01
 0.43755821953E+01 0.37006434532E+01 0.30921273947E+01 0.25636602481E+01 0.21187668259E+01
 0.17542756953E+01 0.14634457561E+01 0.12381820910E+01 0.10703083828E+01 0.95225464783E+00
 0.87757604384E+00 0.84150589531E+00 0.86852887400E+00 0.92432945781E+00 0.10122129987E+01
 0.11366529425E+01 0.13028068806E+01 0.15159635053E+01 0.17808684638E+01 0.21007866082E+01
 0.24761581712E+01 0.29028622441E+01 0.33703837941E+01 0.38604681068E+01 0.43469750207E+01
 0.47974877845E+01 0.51767817541E+01 0.54516674237E+01 0.55962246465E+01 0.55962262252E+01
 0.54516733090E+01 0.51767982492E+01 0.47975253873E+01 0.43470351737E+01 0.38605322537E+01
 0.33704231837E+01 0.29028606291E+01 0.24761225600E+01 0.21007379375E+01 0.17808266207E+01
 0.15159392745E+01 0.13028006329E+01 0.11366568703E+01 0.10122169731E+01 0.92432821919E+00
 0.86852444312E+00 0.84150354559E+00 0.86852887400E+00 0.90325901123E+00 0.96337399473E+00
 0.10519942997E+01 0.11730378512E+01 0.13307942586E+01 0.15293690697E+01 0.17719356899E+01
 0.20597270760E+01 0.23907742442E+01 0.27585528075E+01 0.31508725232E+01 0.35494542527E+01
 0.39306132313E+01 0.42672714877E+01 0.45321795811E+01 0.47018340784E+01 0.47602725295E+01
 0.47018372994E+01 0.45321892637E+01 0.42672927502E+01 0.39306463396E+01 0.35494878742E+01
 0.31508883858E+01 0.27585400796E+01 0.23907378576E+01 0.20596823108E+01 0.17718977945E+01
 0.15293474169E+01 0.13307903051E+01 0.11730444961E+01 0.10519997166E+01 0.96337033394E+00
 0.90324819622E+00 0.86851972440E+00 0.85717854971E+00 0.92432945781E+00 0.96337399473E+00
 0.10245070525E+01 0.11105800602E+01 0.12249828348E+01 0.13712343086E+01 0.15523908025E+01
 0.17702385085E+01 0.20242957442E+01 0.23107501931E+01 0.26215583136E+01 0.29439903077E+01
 0.32608877183E+01 0.35518098708E+01 0.37950850245E+01 0.39705589017E+01 0.40625814939E+01
 0.40625804873E+01 0.39705582628E+01 0.37950889180E+01 0.35518183285E+01 0.32608939475E+01
 0.29439850082E+01 0.26215371677E+01 0.23107171847E+01 0.20242601533E+01 0.17702100355E+01
 0.15523764238E+01 0.13712357626E+01 0.12249943792E+01 0.11105903938E+01 0.10245068362E+01
 0.96336286743E+00 0.92431582331E+00 0.90532747969E+00 0.90533348370E+00 0.10122129987E+01
 0.10519942997E+01 0.11105800602E+01 0.11906115973E+01 0.12950603184E+01 0.14267931928E+01
 0.15879403542E+01 0.17790864532E+01 0.19983892357E+01 0.22408039499E+01 0.24976255086E+01
 0.27565340291E+01 0.30022571760E+01 0.32178743470E+01 0.33866870858E+01 0.34944391625E+01
 0.35314914088E+01 0.34944339197E+01 0.33866804102E+01 0.32178676300E+01 0.30022469965E+01
 0.27565172293E+01 0.24976037465E+01 0.22407819023E+01 0.19983710435E+01 0.17790756899E+01
 0.15879407307E+01 0.14268056251E+01 0.12950793715E+01 0.11906273506E+01 0.11105847844E+01
 0.10519875051E+01 0.10122009549E+01 0.98918749144E+00 0.98166554068E+00 0.98919635042E+00
 0.11366529425E+01 0.11730378512E+01 0.12249828348E+01 0.12950603184E+01 0.13859523430E+01
 0.14999757735E+01 0.16384485358E+01 0.18009680730E+01 0.19847360441E+01 0.21840944353E+01
 0.23904237430E+01 0.25924961548E+01 0.27773046480E+01 0.29313309861E+01 0.30421533426E+01
 0.31001830096E+01 0.31001803379E+01 0.30421467417E+01 0.29313218721E+01 0.27772918152E+01
 0.25924796355E+01 0.23904086221E+01 0.21840871169E+01 0.19847384336E+01 0.18009784919E+01
 0.16384659933E+01 0.14999990876E+01 0.13859762824E+01 0.12950770713E+01 0.12249880899E+01
 0.11730335162E+01 0.11366443599E+01 0.11136718774E+01 0.11025848161E+01 0.11025878015E+01
 0.11136794859E+01 0.13028068806E+01 0.13307942586E+01 0.13712343086E+01 0.14267931928E+01
 0.14999757735E+01 0.15926394463E+01 0.17054315071E+01 0.18372348781E+01 0.19847360191E+01
 0.21422294206E+01 0.23017449501E+01 0.24535364164E+01 0.25869236231E+01 0.26914414495E+01
 0.27581864886E+01 0.27811444424E+01 0.27581859268E+01 0.26914386556E+01 0.25869166296E+01
 0.24535263969E+01 0.23017379523E+01 0.21422323377E+01 0.19847507943E+01 0.18372582306E+01
 0.17054588865E+01 0.15926662040E+01 0.14999958797E+01 0.14268015440E+01 0.13712315115E+01
 0.13307863714E+01 0.13027996442E+01 0.12848155585E+01 0.12748718937E+01 0.12717038344E+01
 0.12748742402E+01 0.12848202718E+01 0.15159635053E+01 0.15293690697E+01 0.15523908025E+01
 0.15879403542E+01 0.16384485358E+01 0.17054315071E+01 0.17890693993E+01 0.18878562745E+01
 0.19983891949E+01 0.21153583846E+01 0.22317855157E+01 0.23395372609E+01 0.24301144344E+01
 0.24956686840E+01 0.25301156568E+01 0.25301181275E+01 0.24956731287E+01 0.24301155796E+01
 0.23395340632E+01 0.22317827352E+01 0.21153620667E+01 0.19984018909E+01 0.18878764374E+01
 0.17890928096E+01 0.17054515986E+01 0.16384576246E+01 0.15879344459E+01 0.15523741527E+01
 0.15293518883E+01 0.15159538149E+01 0.15091914914E+01 0.15063894579E+01 0.15055306344E+01
 0.15055294866E+01 0.15063875375E+01 0.15091931225E+01 0.17808684638E+01 0.17719356899E+01
 0.17702385085E+01 0.17790864532E+01 0.18009680730E+01 0.18372348781E+01 0.18878562745E+01
 0.19512618157E+01 0.20242957375E+01 0.21023134535E+01 0.21794579517E+01 0.22491555868E+01
 0.23048409469E+01 0.23408481899E+01 0.23533121253E+01 0.23408549735E+01 0.23048484315E+01
 0.22491586183E+01 0.21794565734E+01 0.21023106459E+01 0.20242944573E+01 0.19512645902E+01
 0.18878635335E+01 0.18372416484E+01 0.18009654854E+01 0.17790696052E+01 0.17702122486E+01
 0.17719113167E+01 0.17808552079E+01 0.17932914068E+01 0.18054903513E+01 0.18142587218E+01
 0.18174340289E+01 0.18142521877E+01 0.18054832033E+01 0.17932918206E+01 0.21007866082E+01
 0.20597270760E+01 0.20242957442E+01 0.19983892357E+01 0.19847360441E+01 0.19847360191E+01
 0.19983891949E+01 0.20242957375E+01 0.20597271031E+01 0.21007866369E+01 0.21427025045E+01
 0.21803024665E+01 0.22086763829E+01 0.22239429501E+01 0.22239477820E+01 0.22086870267E+01
 0.21803109286E+01 0.21427024161E+01 0.21007756039E+01 0.20597072676E+01 0.20242742065E+01
 0.19983739996E+01 0.19847280575E+01 0.19847273836E+01 0.19983723116E+01 0.20242723478E+01
 0.20597061621E+01 0.21007757656E+01 0.21427037421E+01 0.21803129016E+01 0.22086890693E+01
 0.22239494682E+01 0.22239440644E+01 0.22086769362E+01 0.21803026454E+01 0.21427025204E+01
 0.24761581712E+01 0.23907742442E+01 0.23107501931E+01 0.22408039499E+01 0.21840944353E+01
 0.21422294206E+01 0.21153583846E+01 0.21023134535E+01 0.21007866369E+01 0.21075541544E+01