   2   2   0   0
  0.2108865E+02  0.3907191E-09  0.3907191E-09  0.3907191E-09  0.5000000E-15
  1.000000000000000E-004
  CAR 
 unknown system                          
     16.48412311     -8.24828460  301      5.66201418      1.00000000
     -8.248  0.0000E+00  0.0000E+00
     -8.166  0.0000E+00  0.0000E+00
     -8.083  0.0000E+00  0.0000E+00
     -8.001  0.0000E+00  0.0000E+00
     -7.919  0.0000E+00  0.0000E+00
     -7.836  0.0000E+00  0.0000E+00
     -7.754  0.0000E+00  0.0000E+00
     -7.671  0.0000E+00  0.0000E+00
     -7.589  0.0000E+00  0.0000E+00
     -7.506  0.0000E+00  0.0000E+00
     -7.424  0.3507E-18  0.2891E-19
     -7.341  0.3367E-16  0.2804E-17
     -7.259  0.2779E-14  0.2319E-15
     -7.177  0.1635E-12  0.1372E-13
     -7.094  0.6894E-11  0.5820E-12
     -7.012  0.2084E-09  0.1776E-10
     -6.929  0.4527E-08  0.3910E-09
     -6.847  0.7086E-07  0.6233E-08
     -6.764  0.8023E-06  0.7238E-07
     -6.682  0.6615E-05  0.6177E-06
     -6.599  0.4008E-04  0.3922E-05
     -6.517  0.1809E-03  0.1884E-04
     -6.435  0.6194E-03  0.6990E-04
     -6.352  0.1644E-02  0.2055E-03
     -6.270  0.3470E-02  0.4916E-03
     -6.187  0.5980E-02  0.9845E-03
     -6.105  0.8705E-02  0.1702E-02
     -6.022  0.1122E-01  0.2627E-02
     -5.940  0.1351E-01  0.3741E-02
     -5.857  0.1572E-01  0.5036E-02
     -5.775  0.1762E-01  0.6489E-02
     -5.693  0.1883E-01  0.8041E-02
     -5.610  0.1971E-01  0.9665E-02
     -5.528  0.2132E-01  0.1142E-01
     -5.445  0.2384E-01  0.1339E-01
     -5.363  0.2590E-01  0.1552E-01
     -5.280  0.2643E-01  0.1770E-01
     -5.198  0.2631E-01  0.1987E-01
     -5.116  0.2717E-01  0.2211E-01
     -5.033  0.2919E-01  0.2452E-01
     -4.951  0.3153E-01  0.2712E-01
     -4.868  0.3380E-01  0.2990E-01
     -4.786  0.3592E-01  0.3287E-01
     -4.703  0.3729E-01  0.3594E-01
     -4.621  0.3730E-01  0.3902E-01
     -4.538  0.3651E-01  0.4203E-01
     -4.456  0.3709E-01  0.4508E-01
     -4.374  0.4124E-01  0.4848E-01
     -4.291  0.4819E-01  0.5246E-01
     -4.209  0.5414E-01  0.5692E-01
     -4.126  0.5664E-01  0.6159E-01
     -4.044  0.5690E-01  0.6628E-01
     -3.961  0.5698E-01  0.7098E-01
     -3.879  0.5666E-01  0.7565E-01
     -3.796  0.5429E-01  0.8012E-01
     -3.714  0.5018E-01  0.8426E-01
     -3.632  0.4797E-01  0.8822E-01
     -3.549  0.5067E-01  0.9239E-01
     -3.467  0.5592E-01  0.9700E-01
     -3.384  0.5759E-01  0.1018E+00
     -3.302  0.5232E-01  0.1061E+00
     -3.219  0.4248E-01  0.1096E+00
     -3.137  0.3302E-01  0.1123E+00
     -3.054  0.2716E-01  0.1145E+00
     -2.972  0.2586E-01  0.1167E+00
     -2.890  0.2893E-01  0.1190E+00
     -2.807  0.3461E-01  0.1219E+00
     -2.725  0.3891E-01  0.1251E+00
     -2.642  0.3758E-01  0.1282E+00
     -2.560  0.2973E-01  0.1307E+00
     -2.477  0.1871E-01  0.1322E+00
     -2.395  0.9165E-02  0.1330E+00
     -2.313  0.3476E-02  0.1332E+00
     -2.230  0.1312E-02  0.1333E+00
     -2.148  0.1889E-02  0.1335E+00
     -2.065  0.5919E-02  0.1340E+00
     -1.983  0.1495E-01  0.1352E+00
     -1.900  0.2779E-01  0.1375E+00
     -1.818  0.3844E-01  0.1407E+00
     -1.735  0.4079E-01  0.1440E+00
     -1.653  0.3601E-01  0.1470E+00
     -1.571  0.3180E-01  0.1496E+00
     -1.488  0.3513E-01  0.1525E+00
     -1.406  0.4722E-01  0.1564E+00
     -1.323  0.6341E-01  0.1617E+00
     -1.241  0.7670E-01  0.1680E+00
     -1.158  0.8287E-01  0.1748E+00
     -1.076  0.8138E-01  0.1815E+00
     -0.993  0.7266E-01  0.1875E+00
     -0.911  0.5949E-01  0.1924E+00
     -0.829  0.4859E-01  0.1964E+00
     -0.746  0.4461E-01  0.2001E+00
     -0.664  0.4385E-01  0.2037E+00
     -0.581  0.3941E-01  0.2070E+00
     -0.499  0.3105E-01  0.2095E+00
     -0.416  0.2499E-01  0.2116E+00
     -0.334  0.2553E-01  0.2137E+00
     -0.251  0.3126E-01  0.2163E+00
     -0.169  0.3729E-01  0.2193E+00
     -0.087  0.3847E-01  0.2225E+00
     -0.004  0.3293E-01  0.2252E+00
      0.078  0.2412E-01  0.2272E+00
      0.161  0.1783E-01  0.2287E+00
      0.243  0.1740E-01  0.2301E+00
      0.326  0.2175E-01  0.2319E+00
      0.408  0.2611E-01  0.2341E+00
      0.490  0.2561E-01  0.2362E+00
      0.573  0.1993E-01  0.2378E+00
      0.655  0.1361E-01  0.2389E+00
      0.738  0.1087E-01  0.2398E+00
      0.820  0.1210E-01  0.2408E+00
      0.903  0.1562E-01  0.2421E+00
      0.985  0.2087E-01  0.2438E+00
      1.068  0.2797E-01  0.2461E+00
      1.150  0.3598E-01  0.2491E+00
      1.232  0.4338E-01  0.2527E+00
      1.315  0.4947E-01  0.2568E+00
      1.397  0.5525E-01  0.2613E+00
      1.480  0.6301E-01  0.2665E+00
      1.562  0.7308E-01  0.2725E+00
      1.645  0.8140E-01  0.2793E+00
      1.727  0.8329E-01  0.2861E+00
      1.810  0.7901E-01  0.2926E+00
      1.892  0.7337E-01  0.2987E+00
      1.974  0.7058E-01  0.3045E+00
      2.057  0.7084E-01  0.3103E+00
      2.139  0.7172E-01  0.3163E+00
      2.222  0.7244E-01  0.3222E+00
      2.304  0.7566E-01  0.3285E+00
      2.387  0.8424E-01  0.3354E+00
      2.469  0.9562E-01  0.3433E+00
      2.552  0.1020E+00  0.3517E+00
      2.634  0.9959E-01  0.3599E+00
      2.716  0.9467E-01  0.3677E+00
      2.799  0.9507E-01  0.3756E+00
      2.881  0.9959E-01  0.3838E+00
      2.964  0.1010E+00  0.3921E+00
      3.046  0.9731E-01  0.4001E+00
      3.129  0.9460E-01  0.4079E+00
      3.211  0.9871E-01  0.4161E+00
      3.294  0.1058E+00  0.4248E+00
      3.376  0.1056E+00  0.4335E+00
      3.458  0.9425E-01  0.4412E+00
      3.541  0.7954E-01  0.4478E+00
      3.623  0.7273E-01  0.4538E+00
      3.706  0.7783E-01  0.4602E+00
      3.788  0.8862E-01  0.4675E+00
      3.871  0.9500E-01  0.4754E+00
      3.953  0.9166E-01  0.4829E+00
      4.035  0.8079E-01  0.4896E+00
      4.118  0.6885E-01  0.4952E+00
      4.200  0.6165E-01  0.5003E+00
      4.283  0.5990E-01  0.5053E+00
      4.365  0.5821E-01  0.5101E+00
      4.448  0.5103E-01  0.5143E+00
      4.530  0.3977E-01  0.5175E+00
      4.613  0.3095E-01  0.5201E+00
      4.695  0.2818E-01  0.5224E+00
      4.777  0.2860E-01  0.5248E+00
      4.860  0.2721E-01  0.5270E+00
      4.942  0.2251E-01  0.5289E+00
      5.025  0.1688E-01  0.5303E+00
      5.107  0.1261E-01  0.5313E+00
      5.190  0.9691E-02  0.5321E+00
      5.272  0.7069E-02  0.5327E+00
      5.355  0.4414E-02  0.5331E+00
      5.437  0.2205E-02  0.5332E+00
      5.519  0.8481E-03  0.5333E+00
      5.602  0.2480E-03  0.5333E+00
      5.684  0.7721E-04  0.5333E+00
      5.767  0.1608E-03  0.5333E+00
      5.849  0.6820E-03  0.5334E+00
      5.932  0.2212E-02  0.5336E+00
      6.014  0.5278E-02  0.5340E+00
      6.097  0.9429E-02  0.5348E+00
      6.179  0.1317E-01  0.5359E+00
      6.261  0.1578E-01  0.5372E+00
      6.344  0.1883E-01  0.5387E+00
      6.426  0.2425E-01  0.5407E+00
      6.509  0.3122E-01  0.5433E+00
      6.591  0.3673E-01  0.5463E+00
      6.674  0.3998E-01  0.5496E+00
      6.756  0.4361E-01  0.5532E+00
      6.838  0.4919E-01  0.5573E+00
      6.921  0.5465E-01  0.5618E+00
      7.003  0.5777E-01  0.5666E+00
      7.086  0.5925E-01  0.5714E+00
      7.168  0.6188E-01  0.5765E+00
      7.251  0.6936E-01  0.5823E+00
      7.333  0.8421E-01  0.5892E+00
      7.416  0.1035E+00  0.5977E+00
      7.498  0.1178E+00  0.6074E+00
      7.580  0.1187E+00  0.6172E+00
      7.663  0.1076E+00  0.6261E+00
      7.745  0.9380E-01  0.6338E+00
      7.828  0.8565E-01  0.6409E+00
      7.910  0.8473E-01  0.6479E+00
      7.993  0.8594E-01  0.6550E+00
      8.075  0.8342E-01  0.6618E+00
      8.158  0.7697E-01  0.6682E+00
      8.240  0.7154E-01  0.6741E+00
      8.322  0.7255E-01  0.6801E+00
      8.405  0.8336E-01  0.6869E+00
      8.487  0.1030E+00  0.6954E+00
      8.570  0.1242E+00  0.7057E+00
      8.652  0.1367E+00  0.7169E+00
      8.735  0.1364E+00  0.7282E+00
      8.817  0.1282E+00  0.7388E+00
      8.900  0.1199E+00  0.7486E+00
      8.982  0.1141E+00  0.7580E+00
      9.064  0.1084E+00  0.7670E+00
      9.147  0.1014E+00  0.7753E+00
      9.229  0.9491E-01  0.7832E+00
      9.312  0.9018E-01  0.7906E+00
      9.394  0.8737E-01  0.7978E+00
      9.477  0.8640E-01  0.8049E+00
      9.559  0.8628E-01  0.8120E+00
      9.641  0.8597E-01  0.8191E+00
      9.724  0.8621E-01  0.8262E+00
      9.806  0.8762E-01  0.8335E+00
      9.889  0.8892E-01  0.8408E+00
      9.971  0.9006E-01  0.8482E+00
     10.054  0.9373E-01  0.8559E+00
     10.136  0.9966E-01  0.8642E+00
     10.219  0.1016E+00  0.8725E+00
     10.301  0.9429E-01  0.8803E+00
     10.383  0.8086E-01  0.8870E+00
     10.466  0.6902E-01  0.8927E+00
     10.548  0.6298E-01  0.8979E+00
     10.631  0.6121E-01  0.9029E+00
     10.713  0.6180E-01  0.9080E+00
     10.796  0.6692E-01  0.9135E+00
     10.878  0.7862E-01  0.9200E+00
     10.961  0.9260E-01  0.9276E+00
     11.043  0.1014E+00  0.9360E+00
     11.125  0.1012E+00  0.9443E+00
     11.208  0.9227E-01  0.9519E+00
     11.290  0.7708E-01  0.9583E+00
     11.373  0.6065E-01  0.9633E+00
     11.455  0.4924E-01  0.9674E+00
     11.538  0.4622E-01  0.9712E+00
     11.620  0.4872E-01  0.9752E+00
     11.703  0.4999E-01  0.9793E+00
     11.785  0.4681E-01  0.9832E+00
     11.867  0.4296E-01  0.9867E+00
     11.950  0.4502E-01  0.9904E+00
     12.032  0.5662E-01  0.9951E+00
     12.115  0.7423E-01  0.1001E+01
     12.197  0.8701E-01  0.1008E+01
     12.280  0.8496E-01  0.1015E+01
     12.362  0.6843E-01  0.1021E+01
     12.444  0.4699E-01  0.1025E+01
     12.527  0.3084E-01  0.1027E+01
     12.609  0.2497E-01  0.1029E+01
     12.692  0.2721E-01  0.1032E+01
     12.774  0.3055E-01  0.1034E+01
     12.857  0.3036E-01  0.1037E+01
     12.939  0.2858E-01  0.1039E+01
     13.022  0.2906E-01  0.1042E+01
     13.104  0.3195E-01  0.1044E+01
     13.186  0.3533E-01  0.1047E+01
     13.269  0.3832E-01  0.1050E+01
     13.351  0.3950E-01  0.1053E+01
     13.434  0.3567E-01  0.1056E+01
     13.516  0.2595E-01  0.1059E+01
     13.599  0.1442E-01  0.1060E+01
     13.681  0.5988E-02  0.1060E+01
     13.764  0.2021E-02  0.1060E+01
     13.846  0.1285E-02  0.1061E+01
     13.928  0.2637E-02  0.1061E+01
     14.011  0.5382E-02  0.1061E+01
     14.093  0.8163E-02  0.1062E+01
     14.176  0.9303E-02  0.1063E+01
     14.258  0.8794E-02  0.1063E+01
     14.341  0.8397E-02  0.1064E+01
     14.423  0.8919E-02  0.1065E+01
     14.506  0.8964E-02  0.1065E+01
     14.588  0.7200E-02  0.1066E+01
     14.670  0.4315E-02  0.1066E+01
     14.753  0.1890E-02  0.1067E+01
     14.835  0.6014E-03  0.1067E+01
     14.918  0.1388E-03  0.1067E+01
     15.000  0.2318E-04  0.1067E+01
     15.083  0.2798E-05  0.1067E+01
     15.165  0.2439E-06  0.1067E+01
     15.248  0.1533E-07  0.1067E+01
     15.330  0.6938E-09  0.1067E+01
     15.412  0.2258E-10  0.1067E+01
     15.495  0.5281E-12  0.1067E+01
     15.577  0.8867E-14  0.1067E+01
     15.660  0.1052E-15  0.1067E+01
     15.742  0.0000E+00  0.1067E+01
     15.825  0.0000E+00  0.1067E+01
     15.907  0.0000E+00  0.1067E+01
     15.989  0.0000E+00  0.1067E+01
     16.072  0.0000E+00  0.1067E+01
     16.154  0.0000E+00  0.1067E+01
     16.237  0.0000E+00  0.1067E+01
     16.319  0.0000E+00  0.1067E+01
     16.402  0.0000E+00  0.1067E+01
     16.484  0.0000E+00  0.1067E+01
