 vasp.5.4.4.18Apr17-6-g9f103f2a35 (build Dec 09 2018 21:25:21) complex          
  
 executed on IFC18.0.1.163_CrayMP date 2019.03.23  21:24:08
 running on    8 total cores
 distrk:  each k-point on    8 cores,    1 groups
 distr:  one band on NCORES_PER_BAND=   1 cores,    8 groups


--------------------------------------------------------------------------------------------------------


 INCAR:
 POTCAR:   PAW_PBE Si 05Jan2001                   

 ----------------------------------------------------------------------------- 
|                                                                             |
|           W    W    AA    RRRRR   N    N  II  N    N   GGGG   !!!           |
|           W    W   A  A   R    R  NN   N  II  NN   N  G    G  !!!           |
|           W    W  A    A  R    R  N N  N  II  N N  N  G       !!!           |
|           W WW W  AAAAAA  RRRRR   N  N N  II  N  N N  G  GGG   !            |
|           WW  WW  A    A  R   R   N   NN  II  N   NN  G    G                |
|           W    W  A    A  R    R  N    N  II  N    N   GGGG   !!!           |
|                                                                             |
|      For optimal performance we recommend to set                            |
|        NCORE= 4 - approx SQRT( number of cores)                             |
|      NCORE specifies how many cores store one orbital (NPAR=cpu/NCORE).     |
|      This setting can  greatly improve the performance of VASP for DFT.     |
|      The default,   NCORE=1            might be grossly inefficient         |
|      on modern multi-core architectures or massively parallel machines.     |
|      Do your own testing !!!!                                               |
|      Unfortunately you need to use the default for GW and RPA calculations. |
|      (for HF NCORE is supported but not extensively tested yet)             |
|                                                                             |
 ----------------------------------------------------------------------------- 

 POTCAR:   PAW_PBE Si 05Jan2001                   
   VRHFIN =Si: s2p2                                                             
   LEXCH  = PE                                                                  
   EATOM  =   103.0669 eV,    7.5752 Ry                                         
                                                                                
   TITEL  = PAW_PBE Si 05Jan2001                                                
   LULTRA =        F    use ultrasoft PP ?                                      
   IUNSCR =        1    unscreen: 0-lin 1-nonlin 2-no                           
   RPACOR =    1.500    partial core radius                                     
   POMASS =   28.085; ZVAL   =    4.000    mass and valenz                      
   RCORE  =    1.900    outmost cutoff radius                                   
   RWIGS  =    2.480; RWIGS  =    1.312    wigner-seitz radius (au A)           
   ENMAX  =  245.345; ENMIN  =  184.009 eV                                      
   ICORE  =        2    local potential                                         
   LCOR   =        T    correct aug charges                                     
   LPAW   =        T    paw PP                                                  
   EAUG   =  322.069                                                            
   DEXC   =    -.007                                                            
   RMAX   =    2.944    core radius for proj-oper                               
   RAUG   =    1.300    factor for augmentation sphere                          
   RDEP   =    1.993    radius for radial grids                                 
   QCUT   =   -4.246; QGAM   =    8.493    optimization parameters              
                                                                                
   Description                                                                  
     l     E      TYP  RCUT    TYP  RCUT                                        
     0   .000     23  1.900                                                     
     0   .000     23  1.900                                                     
     1   .000     23  1.900                                                     
     1   .000     23  1.900                                                     
     2   .000      7  1.900                                                     
  local pseudopotential read in
  partial core-charges read in
  atomic valenz-charges read in
  non local Contribution for L=           0  read in
    real space projection operators read in
  non local Contribution for L=           0  read in
    real space projection operators read in
  non local Contribution for L=           1  read in
    real space projection operators read in
  non local Contribution for L=           1  read in
    real space projection operators read in
    PAW grid and wavefunctions read in
 
   number of l-projection  operators is LMAX  =           4
   number of lm-projection operators is LMMAX =           8
 
 PAW_PBE Si 05Jan2001                   :
 energy of atom  1       EATOM= -103.0669
 kinetic energy error for atom=    0.0013 (will be added to EATOM!!)
 
 
 POSCAR: Si2                                     
  positions in direct lattice
  No initial velocities read in
 exchange correlation table for  LEXCH =        8
   RHO(1)=    0.500       N(1)  =     2000
   RHO(2)=  100.500       N(2)  =     4000
 


--------------------------------------------------------------------------------------------------------


 ion  position               nearest neighbor table
   1  0.500  0.500  0.500-   2 2.39   2 2.39   2 2.39   2 2.39
   2  0.750  0.750  0.750-   1 2.39   1 2.39   1 2.39   1 2.39
 
  LATTYP: Found a face centered cubic cell.
 ALAT       =     5.5256020000
  
  Lattice vectors:
  
 A1 = (   0.0000000000,   2.7628010000,   2.7628010000)
 A2 = (   2.7628010000,   0.0000000000,   2.7628010000)
 A3 = (   2.7628010000,   2.7628010000,   0.0000000000)


Analysis of symmetry for initial positions (statically):
=====================================================================
 Subroutine PRICEL returns:
 Original cell was already a primitive cell.
 

 Routine SETGRP: Setting up the symmetry group for a 
 face centered cubic supercell.


 Subroutine GETGRP returns: Found 48 space group operations
 (whereof 24 operations were pure point group operations)
 out of a pool of 48 trial point group operations.


The static configuration has the point symmetry T_d .
 The point group associated with its full space group is O_h .


Analysis of symmetry for dynamics (positions and initial velocities):
=====================================================================
 Subroutine PRICEL returns:
 Original cell was already a primitive cell.
 

 Routine SETGRP: Setting up the symmetry group for a 
 face centered cubic supercell.


 Subroutine GETGRP returns: Found 48 space group operations
 (whereof 24 operations were pure point group operations)
 out of a pool of 48 trial point group operations.


The dynamic configuration has the point symmetry T_d .
 The point group associated with its full space group is O_h .


 Subroutine INISYM returns: Found 48 space group operations
 (whereof 24 operations are pure point group operations),
 and found     1 'primitive' translations

 
 
 KPOINTS: Automatic kpoint scheme                 

Automatic generation of k-mesh.
Space group operators:
 irot       det(A)        alpha          n_x          n_y          n_z        tau_x        tau_y        tau_z
    1     1.000000     0.000000     1.000000     0.000000     0.000000     0.000000     0.000000     0.000000
    2     1.000000   120.000000    -0.577350    -0.577350    -0.577350     0.000000     0.000000     0.000000
    3     1.000000   120.000000     0.577350     0.577350     0.577350     0.000000     0.000000     0.000000
    4    -1.000000    90.000000    -0.000000     0.000000    -1.000000     0.000000     0.000000     0.000000
    5    -1.000000   180.000000    -0.000000     0.707107     0.707107     0.000000     0.000000     0.000000
    6    -1.000000    90.000000    -0.000000     1.000000    -0.000000     0.000000     0.000000     0.000000
    7     1.000000   180.000000     0.000000     0.000000    -1.000000     0.000000     0.000000     0.000000
    8     1.000000   120.000000    -0.577350     0.577350     0.577350     0.000000     0.000000     0.000000
    9     1.000000   120.000000    -0.577350     0.577350    -0.577350     0.000000     0.000000     0.000000
   10    -1.000000    90.000000     0.000000     0.000000     1.000000     0.000000     0.000000     0.000000
   11    -1.000000    90.000000    -1.000000     0.000000     0.000000     0.000000     0.000000     0.000000
   12    -1.000000   180.000000     0.707107     0.000000     0.707107     0.000000     0.000000     0.000000
   13     1.000000   120.000000     0.577350    -0.577350     0.577350     0.000000     0.000000     0.000000
   14     1.000000   120.000000    -0.577350    -0.577350     0.577350     0.000000     0.000000     0.000000
   15     1.000000   180.000000     1.000000     0.000000     0.000000     0.000000     0.000000     0.000000
   16    -1.000000    90.000000     0.000000    -1.000000     0.000000     0.000000     0.000000     0.000000
   17    -1.000000   180.000000     0.707107     0.707107    -0.000000     0.000000     0.000000     0.000000
   18    -1.000000    90.000000     1.000000     0.000000     0.000000     0.000000     0.000000     0.000000
   19     1.000000   120.000000     0.577350    -0.577350    -0.577350     0.000000     0.000000     0.000000
   20     1.000000   180.000000    -0.000000    -1.000000     0.000000     0.000000     0.000000     0.000000
   21     1.000000   120.000000     0.577350     0.577350    -0.577350     0.000000     0.000000     0.000000
   22    -1.000000   180.000000     0.000000    -0.707107     0.707107     0.000000     0.000000     0.000000
   23    -1.000000   180.000000     0.707107    -0.707107     0.000000     0.000000     0.000000     0.000000
   24    -1.000000   180.000000     0.707107     0.000000    -0.707107     0.000000     0.000000     0.000000
   25    -1.000000     0.000000     1.000000     0.000000     0.000000     0.250000     0.250000     0.250000
   26    -1.000000   120.000000    -0.577350    -0.577350    -0.577350     0.250000     0.250000     0.250000
   27    -1.000000   120.000000     0.577350     0.577350     0.577350     0.250000     0.250000     0.250000
   28     1.000000    90.000000    -0.000000     0.000000    -1.000000     0.250000     0.250000     0.250000
   29     1.000000   180.000000    -0.000000     0.707107     0.707107     0.250000     0.250000     0.250000
   30     1.000000    90.000000    -0.000000     1.000000    -0.000000     0.250000     0.250000     0.250000
   31    -1.000000   180.000000     0.000000     0.000000    -1.000000     0.250000     0.250000     0.250000
   32    -1.000000   120.000000    -0.577350     0.577350     0.577350     0.250000     0.250000     0.250000
   33    -1.000000   120.000000    -0.577350     0.577350    -0.577350     0.250000     0.250000     0.250000
   34     1.000000    90.000000     0.000000     0.000000     1.000000     0.250000     0.250000     0.250000
   35     1.000000    90.000000    -1.000000     0.000000     0.000000     0.250000     0.250000     0.250000
   36     1.000000   180.000000     0.707107     0.000000     0.707107     0.250000     0.250000     0.250000
   37    -1.000000   120.000000     0.577350    -0.577350     0.577350     0.250000     0.250000     0.250000
   38    -1.000000   120.000000    -0.577350    -0.577350     0.577350     0.250000     0.250000     0.250000
   39    -1.000000   180.000000     1.000000     0.000000     0.000000     0.250000     0.250000     0.250000
   40     1.000000    90.000000     0.000000    -1.000000     0.000000     0.250000     0.250000     0.250000
   41     1.000000   180.000000     0.707107     0.707107    -0.000000     0.250000     0.250000     0.250000
   42     1.000000    90.000000     1.000000     0.000000     0.000000     0.250000     0.250000     0.250000
   43    -1.000000   120.000000     0.577350    -0.577350    -0.577350     0.250000     0.250000     0.250000
   44    -1.000000   180.000000    -0.000000    -1.000000     0.000000     0.250000     0.250000     0.250000
   45    -1.000000   120.000000     0.577350     0.577350    -0.577350     0.250000     0.250000     0.250000
   46     1.000000   180.000000     0.000000    -0.707107     0.707107     0.250000     0.250000     0.250000
   47     1.000000   180.000000     0.707107    -0.707107     0.000000     0.250000     0.250000     0.250000
   48     1.000000   180.000000     0.707107     0.000000    -0.707107     0.250000     0.250000     0.250000
 
 Subroutine IBZKPT returns following result:
 ===========================================
 
 Found     60 irreducible k-points:
 
 Following reciprocal coordinates:
            Coordinates               Weight
  0.062500  0.062500  0.062500     96.000000
  0.187500  0.062500  0.062500    288.000000
  0.312500  0.062500  0.062500    288.000000
  0.437500  0.062500  0.062500    288.000000
 -0.437500  0.062500  0.062500    288.000000
 -0.312500  0.062500  0.062500    288.000000
 -0.187500  0.062500  0.062500    288.000000
 -0.062500  0.062500  0.062500    288.000000
  0.187500  0.187500  0.062500    288.000000
  0.312500  0.187500  0.062500    576.000000
  0.437500  0.187500  0.062500    576.000000
 -0.437500  0.187500  0.062500    576.000000
 -0.312500  0.187500  0.062500    576.000000
 -0.187500  0.187500  0.062500    576.000000
 -0.062500  0.187500  0.062500    576.000000
  0.312500  0.312500  0.062500    288.000000
  0.437500  0.312500  0.062500    576.000000
 -0.437500  0.312500  0.062500    576.000000
 -0.312500  0.312500  0.062500    576.000000
 -0.187500  0.312500  0.062500    576.000000
 -0.062500  0.312500  0.062500    576.000000
  0.437500  0.437500  0.062500    288.000000
 -0.437500  0.437500  0.062500    576.000000
 -0.312500  0.437500  0.062500    576.000000
 -0.187500  0.437500  0.062500    576.000000
 -0.062500  0.437500  0.062500    576.000000
 -0.437500 -0.437500  0.062500    288.000000
 -0.312500 -0.437500  0.062500    576.000000
 -0.187500 -0.437500  0.062500    576.000000
 -0.312500 -0.312500  0.062500    288.000000
 -0.187500 -0.312500  0.062500    576.000000
 -0.187500 -0.187500  0.062500    288.000000
  0.187500  0.187500  0.187500     96.000000
  0.312500  0.187500  0.187500    288.000000
  0.437500  0.187500  0.187500    288.000000
 -0.437500  0.187500  0.187500    288.000000
 -0.312500  0.187500  0.187500    288.000000
 -0.187500  0.187500  0.187500    288.000000
  0.312500  0.312500  0.187500    288.000000
  0.437500  0.312500  0.187500    576.000000
 -0.437500  0.312500  0.187500    576.000000
 -0.312500  0.312500  0.187500    576.000000
 -0.187500  0.312500  0.187500    576.000000
  0.437500  0.437500  0.187500    288.000000
 -0.437500  0.437500  0.187500    576.000000
 -0.312500  0.437500  0.187500    576.000000
 -0.187500  0.437500  0.187500    576.000000
 -0.437500 -0.437500  0.187500    288.000000
 -0.312500 -0.437500  0.187500    576.000000
 -0.312500 -0.312500  0.187500    288.000000
  0.312500  0.312500  0.312500     96.000000
  0.437500  0.312500  0.312500    288.000000
 -0.437500  0.312500  0.312500    288.000000
 -0.312500  0.312500  0.312500    288.000000
  0.437500  0.437500  0.312500    288.000000
 -0.437500  0.437500  0.312500    576.000000
 -0.312500  0.437500  0.312500    576.000000
 -0.437500 -0.437500  0.312500    288.000000
  0.437500  0.437500  0.437500     96.000000
 -0.437500  0.437500  0.437500    288.000000
 
 Following cartesian coordinates:
            Coordinates               Weight
  0.011311  0.011311  0.011311     96.000000
 -0.011311  0.033933  0.033933    288.000000
 -0.033933  0.056555  0.056555    288.000000
 -0.056555  0.079177  0.079177    288.000000
  0.101799 -0.079177 -0.079177    288.000000
  0.079177 -0.056555 -0.056555    288.000000
  0.056555 -0.033933 -0.033933    288.000000
  0.033933 -0.011311 -0.011311    288.000000
  0.011311  0.011311  0.056555    288.000000
 -0.011311  0.033933  0.079177    576.000000
 -0.033933  0.056555  0.101799    576.000000
  0.124421 -0.101799 -0.056555    576.000000
  0.101799 -0.079177 -0.033933    576.000000
  0.079177 -0.056555 -0.011311    576.000000
  0.056555 -0.033933  0.011311    576.000000
  0.011311  0.011311  0.101799    288.000000
 -0.011311  0.033933  0.124421    576.000000
  0.147043 -0.124421 -0.033933    576.000000
  0.124421 -0.101799 -0.011311    576.000000
  0.101799 -0.079177  0.011311    576.000000
  0.079177 -0.056555  0.033933    576.000000
  0.011311  0.011311  0.147043    288.000000
  0.169665 -0.147043 -0.011311    576.000000
  0.147043 -0.124421  0.011311    576.000000
  0.124421 -0.101799  0.033933    576.000000
  0.101799 -0.079177  0.056555    576.000000
  0.011311  0.011311 -0.169665    288.000000
 -0.011311  0.033933 -0.147043    576.000000
 -0.033933  0.056555 -0.124421    576.000000
  0.011311  0.011311 -0.124421    288.000000
 -0.011311  0.033933 -0.101799    576.000000
  0.011311  0.011311 -0.079177    288.000000
  0.033933  0.033933  0.033933     96.000000
  0.011311  0.056555  0.056555    288.000000
 -0.011311  0.079177  0.079177    288.000000
  0.147043 -0.079177 -0.079177    288.000000
  0.124421 -0.056555 -0.056555    288.000000
  0.101799 -0.033933 -0.033933    288.000000
  0.033933  0.033933  0.079177    288.000000
  0.011311  0.056555  0.101799    576.000000
  0.169665 -0.101799 -0.056555    576.000000
  0.147043 -0.079177 -0.033933    576.000000
  0.124421 -0.056555 -0.011311    576.000000
  0.033933  0.033933  0.124421    288.000000
  0.192287 -0.124421 -0.033933    576.000000
  0.169665 -0.101799 -0.011311    576.000000
  0.147043 -0.079177  0.011311    576.000000
  0.033933  0.033933 -0.192287    288.000000
  0.011311  0.056555 -0.169665    576.000000
  0.033933  0.033933 -0.147043    288.000000
  0.056555  0.056555  0.056555     96.000000
  0.033933  0.079177  0.079177    288.000000
  0.192287 -0.079177 -0.079177    288.000000
  0.169665 -0.056555 -0.056555    288.000000
  0.056555  0.056555  0.101799    288.000000
  0.214909 -0.101799 -0.056555    576.000000
  0.192287 -0.079177 -0.033933    576.000000
  0.056555  0.056555 -0.214909    288.000000
  0.079177  0.079177  0.079177     96.000000
  0.237531 -0.079177 -0.079177    288.000000
 


--------------------------------------------------------------------------------------------------------




 Dimension of arrays:
   k-points           NKPTS =     60   k-points in BZ     NKDIM =     60   number of bands    NBANDS=      8
   number of dos      NEDOS =    301   number of ions     NIONS =      2
   non local maximal  LDIM  =      4   non local SUM 2l+1 LMDIM =      8
   total plane-waves  NPLWV =   5832
   max r-space proj   IRMAX =      1   max aug-charges    IRDMAX=   4822
   dimension x,y,z NGX =    18 NGY =   18 NGZ =   18
   dimension x,y,z NGXF=    36 NGYF=   36 NGZF=   36
   support grid    NGXF=    36 NGYF=   36 NGZF=   36
   ions per type =               2
   NGX,Y,Z   is equivalent  to a cutoff of   7.66,  7.66,  7.66 a.u.
   NGXF,Y,Z  is equivalent  to a cutoff of  15.32, 15.32, 15.32 a.u.

 SYSTEM =  unknown system                          
 POSCAR =  Si2                                     

 Startparameter for this run:
   NWRITE =      2    write-flag & timer
   PREC   = normal    normal or accurate (medium, high low for compatibility)
   ISTART =      0    job   : 0-new  1-cont  2-samecut
   ICHARG =      2    charge: 1-file 2-atom 10-const
   ISPIN  =      1    spin polarized calculation?
   LNONCOLLINEAR =      F non collinear calculations
   LSORBIT =      F    spin-orbit coupling
   INIWAV =      1    electr: 0-lowe 1-rand  2-diag
   LASPH  =      F    aspherical Exc in radial PAW
   METAGGA=      F    non-selfconsistent MetaGGA calc.

 Electronic Relaxation 1
   ENCUT  =  350.0 eV  25.72 Ry    5.07 a.u.   5.96  5.96  5.96*2*pi/ulx,y,z
   ENINI  =  350.0     initial cutoff
   ENAUG  =  322.1 eV  augmentation charge cutoff
   NELM   =     60;   NELMIN=  2; NELMDL= -5     # of ELM steps 
   EDIFF  = 0.4E-03   stopping-criterion for ELM
   LREAL  =      F    real-space projection
   NLSPLINE    = F    spline interpolate recip. space projectors
   LCOMPAT=      F    compatible to vasp.4.4
   GGA_COMPAT  = T    GGA compatible to vasp.4.4-vasp.4.6
   LMAXPAW     = -100 max onsite density
   LMAXMIX     =    2 max onsite mixed and CHGCAR
   VOSKOWN=      0    Vosko Wilk Nusair interpolation
   ROPT   =    0.00000
 Ionic relaxation
   EDIFFG = -.1E-01   stopping-criterion for IOM
   NSW    =     15    number of steps for IOM
   NBLOCK =      1;   KBLOCK =     15    inner block; outer block 
   IBRION =      2    ionic relax: 0-MD 1-quasi-New 2-CG
   NFREE  =      1    steps in history (QN), initial steepest desc. (CG)
   ISIF   =      2    stress and relaxation
   IWAVPR =     11    prediction:  0-non 1-charg 2-wave 3-comb
   ISYM   =      2    0-nonsym 1-usesym 2-fastsym
   LCORR  =      T    Harris-Foulkes like correction to forces

   POTIM  = 0.5000    time-step for ionic-motion
   TEIN   =    0.0    initial temperature
   TEBEG  =    0.0;   TEEND  =   0.0 temperature during run
   SMASS  =  -3.00    Nose mass-parameter (am)
   estimated Nose-frequenzy (Omega)   =  0.10E-29 period in steps =****** mass=  -0.349E-27a.u.
   SCALEE = 1.0000    scale energy and forces
   NPACO  =    256;   APACO  = 16.0  distance and # of slots for P.C.
   PSTRESS=    0.0 pullay stress

  Mass of Ions in am
   POMASS =  28.09
  Ionic Valenz
   ZVAL   =   4.00
  Atomic Wigner-Seitz radii
   RWIGS  =  -1.00
  virtual crystal weights 
   VCA    =   1.00
   NELECT =       8.0000    total number of electrons
   NUPDOWN=      -1.0000    fix difference up-down

 DOS related values:
   EMIN   =  10.00;   EMAX   =-10.00  energy-range for DOS
   EFERMI =   0.00
   ISMEAR =     0;   SIGMA  =   0.20  broadening in eV -4-tet -1-fermi 0-gaus

 Electronic relaxation 2 (details)
   IALGO  =     38    algorithm
   LDIAG  =      T    sub-space diagonalisation (order eigenvalues)
   LSUBROT=      F    optimize rotation matrix (better conditioning)
   TURBO    =      0    0=normal 1=particle mesh
   IRESTART =      0    0=no restart 2=restart with 2 vectors
   NREBOOT  =      0    no. of reboots
   NMIN     =      0    reboot dimension
   EREF     =   0.00    reference energy to select bands
   IMIX   =      4    mixing-type and parameters
     AMIX     =   0.40;   BMIX     =  1.00
     AMIX_MAG =   1.60;   BMIX_MAG =  1.00
     AMIN     =   0.10
     WC   =   100.;   INIMIX=   1;  MIXPRE=   1;  MAXMIX= -45

 Intra band minimization:
   WEIMIN = 0.0010     energy-eigenvalue tresh-hold
   EBREAK =  0.13E-04  absolut break condition
   DEPER  =   0.30     relativ break condition  

   TIME   =   0.40     timestep for ELM

  volume/ion in A,a.u.               =      21.09       142.31
  Fermi-wavevector in a.u.,A,eV,Ry     =   0.940615  1.777505 12.037844  0.884757
  Thomas-Fermi vector in A             =   2.068044
 
 Write flags
   LWAVE        =      T    write WAVECAR
   LDOWNSAMPLE  =      F    k-point downsampling of WAVECAR
   LCHARG       =      T    write CHGCAR
   LVTOT        =      F    write LOCPOT, total local potential
   LVHAR        =      F    write LOCPOT, Hartree potential only
   LELF         =      F    write electronic localiz. function (ELF)
   LORBIT       =      0    0 simple, 1 ext, 2 COOP (PROOUT), +10 PAW based schemes


 Dipole corrections
   LMONO  =      F    monopole corrections only (constant potential shift)
   LDIPOL =      F    correct potential (dipole corrections)
   IDIPOL =      0    1-x, 2-y, 3-z, 4-all directions 
   EPSILON=  1.0000000 bulk dielectric constant

 Exchange correlation treatment:
   GGA     =    --    GGA type
   LEXCH   =     8    internal setting for exchange type
   VOSKOWN=      0    Vosko Wilk Nusair interpolation
   LHFCALC =     F    Hartree Fock is set to
   LHFONE  =     F    Hartree Fock one center treatment
   AEXX    =    0.0000 exact exchange contribution

 Linear response parameters
   LEPSILON=     F    determine dielectric tensor
   LRPA    =     F    only Hartree local field effects (RPA)
   LNABLA  =     F    use nabla operator in PAW spheres
   LVEL    =     F    velocity operator in full k-point grid
   LINTERFAST=   F  fast interpolation
   KINTER  =     0    interpolate to denser k-point grid
   CSHIFT  =0.1000    complex shift for real part using Kramers Kronig
   OMEGAMAX=  -1.0    maximum frequency
   DEG_THRESHOLD= 0.2000000E-02 threshold for treating states as degnerate
   RTIME   =   -0.100 relaxation time in fs
  (WPLASMAI=    0.000 imaginary part of plasma frequency in eV, 0.658/RTIME)
   DFIELD  = 0.0000000 0.0000000 0.0000000 field for delta impulse in time
 
 Orbital magnetization related:
   ORBITALMAG=     F  switch on orbital magnetization
   LCHIMAG   =     F  perturbation theory with respect to B field
   DQ        =  0.001000  dq finite difference perturbation B field
   LLRAUG    =     F  two centre corrections for induced B field



--------------------------------------------------------------------------------------------------------


 conjugate gradient relaxation of ions
 charge density and potential will be updated during run
 non-spin polarized calculation
 Variant of blocked Davidson
 Davidson routine will perform the subspace rotation
 perform sub-space diagonalisation
    after iterative eigenvector-optimisation
 modified Broyden-mixing scheme, WC =      100.0
 initial mixing is a Kerker type mixing with AMIX =  0.4000 and BMIX =      1.0000
 Hartree-type preconditioning will be used
 using additional bands            4
 reciprocal scheme for non local part
 use partial core corrections
 calculate Harris-corrections to forces 
   (improved forces if not selfconsistent)
 use gradient corrections 
 use of overlap-Matrix (Vanderbilt PP)
 Gauss-broadening in eV      SIGMA  =   0.20


--------------------------------------------------------------------------------------------------------


  energy-cutoff  :      350.00
  volume of cell :       42.18
      direct lattice vectors                 reciprocal lattice vectors
     0.000000000  2.762801000  2.762801000    -0.180975756  0.180975756  0.180975756
     2.762801000  0.000000000  2.762801000     0.180975756 -0.180975756  0.180975756
     2.762801000  2.762801000  0.000000000     0.180975756  0.180975756 -0.180975756

  length of vectors
     3.907190644  3.907190644  3.907190644     0.313459205  0.313459205  0.313459205


 
 k-points in units of 2pi/SCALE and weight: Automatic kpoint scheme                 
   0.01131098  0.01131098  0.01131098       0.004
  -0.01131098  0.03393295  0.03393295       0.012
  -0.03393295  0.05655492  0.05655492       0.012
  -0.05655492  0.07917689  0.07917689       0.012
   0.10179886 -0.07917689 -0.07917689       0.012
   0.07917689 -0.05655492 -0.05655492       0.012
   0.05655492 -0.03393295 -0.03393295       0.012
   0.03393295 -0.01131098 -0.01131098       0.012
   0.01131098  0.01131098  0.05655492       0.012
  -0.01131098  0.03393295  0.07917689       0.023
  -0.03393295  0.05655492  0.10179886       0.023
   0.12442083 -0.10179886 -0.05655492       0.023
   0.10179886 -0.07917689 -0.03393295       0.023
   0.07917689 -0.05655492 -0.01131098       0.023
   0.05655492 -0.03393295  0.01131098       0.023
   0.01131098  0.01131098  0.10179886       0.012
  -0.01131098  0.03393295  0.12442083       0.023
   0.14704280 -0.12442083 -0.03393295       0.023
   0.12442083 -0.10179886 -0.01131098       0.023
   0.10179886 -0.07917689  0.01131098       0.023
   0.07917689 -0.05655492  0.03393295       0.023
   0.01131098  0.01131098  0.14704280       0.012
   0.16966477 -0.14704280 -0.01131098       0.023
   0.14704280 -0.12442083  0.01131098       0.023
   0.12442083 -0.10179886  0.03393295       0.023
   0.10179886 -0.07917689  0.05655492       0.023
   0.01131098  0.01131098 -0.16966477       0.012
  -0.01131098  0.03393295 -0.14704280       0.023
  -0.03393295  0.05655492 -0.12442083       0.023
   0.01131098  0.01131098 -0.12442083       0.012
  -0.01131098  0.03393295 -0.10179886       0.023
   0.01131098  0.01131098 -0.07917689       0.012
   0.03393295  0.03393295  0.03393295       0.004
   0.01131098  0.05655492  0.05655492       0.012
  -0.01131098  0.07917689  0.07917689       0.012
   0.14704280 -0.07917689 -0.07917689       0.012
   0.12442083 -0.05655492 -0.05655492       0.012
   0.10179886 -0.03393295 -0.03393295       0.012
   0.03393295  0.03393295  0.07917689       0.012
   0.01131098  0.05655492  0.10179886       0.023
   0.16966477 -0.10179886 -0.05655492       0.023
   0.14704280 -0.07917689 -0.03393295       0.023
   0.12442083 -0.05655492 -0.01131098       0.023
   0.03393295  0.03393295  0.12442083       0.012
   0.19228674 -0.12442083 -0.03393295       0.023
   0.16966477 -0.10179886 -0.01131098       0.023
   0.14704280 -0.07917689  0.01131098       0.023
   0.03393295  0.03393295 -0.19228674       0.012
   0.01131098  0.05655492 -0.16966477       0.023
   0.03393295  0.03393295 -0.14704280       0.012
   0.05655492  0.05655492  0.05655492       0.004
   0.03393295  0.07917689  0.07917689       0.012
   0.19228674 -0.07917689 -0.07917689       0.012
   0.16966477 -0.05655492 -0.05655492       0.012
   0.05655492  0.05655492  0.10179886       0.012
   0.21490871 -0.10179886 -0.05655492       0.023
   0.19228674 -0.07917689 -0.03393295       0.023
   0.05655492  0.05655492 -0.21490871       0.012
   0.07917689  0.07917689  0.07917689       0.004
   0.23753068 -0.07917689 -0.07917689       0.012
 
 k-points in reciprocal lattice and weights: Automatic kpoint scheme                 
   0.06250000  0.06250000  0.06250000       0.004
   0.18750000  0.06250000  0.06250000       0.012
   0.31250000  0.06250000  0.06250000       0.012
   0.43750000  0.06250000  0.06250000       0.012
  -0.43750000  0.06250000  0.06250000       0.012
  -0.31250000  0.06250000  0.06250000       0.012
  -0.18750000  0.06250000  0.06250000       0.012
  -0.06250000  0.06250000  0.06250000       0.012
   0.18750000  0.18750000  0.06250000       0.012
   0.31250000  0.18750000  0.06250000       0.023
   0.43750000  0.18750000  0.06250000       0.023
  -0.43750000  0.18750000  0.06250000       0.023
  -0.31250000  0.18750000  0.06250000       0.023
  -0.18750000  0.18750000  0.06250000       0.023
  -0.06250000  0.18750000  0.06250000       0.023
   0.31250000  0.31250000  0.06250000       0.012
   0.43750000  0.31250000  0.06250000       0.023
  -0.43750000  0.31250000  0.06250000       0.023
  -0.31250000  0.31250000  0.06250000       0.023
  -0.18750000  0.31250000  0.06250000       0.023
  -0.06250000  0.31250000  0.06250000       0.023
   0.43750000  0.43750000  0.06250000       0.012
  -0.43750000  0.43750000  0.06250000       0.023
  -0.31250000  0.43750000  0.06250000       0.023
  -0.18750000  0.43750000  0.06250000       0.023
  -0.06250000  0.43750000  0.06250000       0.023
  -0.43750000 -0.43750000  0.06250000       0.012
  -0.31250000 -0.43750000  0.06250000       0.023
  -0.18750000 -0.43750000  0.06250000       0.023
  -0.31250000 -0.31250000  0.06250000       0.012
  -0.18750000 -0.31250000  0.06250000       0.023
  -0.18750000 -0.18750000  0.06250000       0.012
   0.18750000  0.18750000  0.18750000       0.004
   0.31250000  0.18750000  0.18750000       0.012
   0.43750000  0.18750000  0.18750000       0.012
  -0.43750000  0.18750000  0.18750000       0.012
  -0.31250000  0.18750000  0.18750000       0.012
  -0.18750000  0.18750000  0.18750000       0.012
   0.31250000  0.31250000  0.18750000       0.012
   0.43750000  0.31250000  0.18750000       0.023
  -0.43750000  0.31250000  0.18750000       0.023
  -0.31250000  0.31250000  0.18750000       0.023
  -0.18750000  0.31250000  0.18750000       0.023
   0.43750000  0.43750000  0.18750000       0.012
  -0.43750000  0.43750000  0.18750000       0.023
  -0.31250000  0.43750000  0.18750000       0.023
  -0.18750000  0.43750000  0.18750000       0.023
  -0.43750000 -0.43750000  0.18750000       0.012
  -0.31250000 -0.43750000  0.18750000       0.023
  -0.31250000 -0.31250000  0.18750000       0.012
   0.31250000  0.31250000  0.31250000       0.004
   0.43750000  0.31250000  0.31250000       0.012
  -0.43750000  0.31250000  0.31250000       0.012
  -0.31250000  0.31250000  0.31250000       0.012
   0.43750000  0.43750000  0.31250000       0.012
  -0.43750000  0.43750000  0.31250000       0.023
  -0.31250000  0.43750000  0.31250000       0.023
  -0.43750000 -0.43750000  0.31250000       0.012
   0.43750000  0.43750000  0.43750000       0.004
  -0.43750000  0.43750000  0.43750000       0.012
 
 position of ions in fractional coordinates (direct lattice) 
   0.50000000  0.50000000  0.50000000
   0.75000000  0.75000000  0.75000000
 
 position of ions in cartesian coordinates  (Angst):
   2.76280100  2.76280100  2.76280100
   4.14420150  4.14420150  4.14420150
 


--------------------------------------------------------------------------------------------------------


 k-point  1 :   0.0625 0.0625 0.0625  plane waves:     621
 k-point  2 :   0.1875 0.0625 0.0625  plane waves:     617
 k-point  3 :   0.3125 0.0625 0.0625  plane waves:     623
 k-point  4 :   0.4375 0.0625 0.0625  plane waves:     617
 k-point  5 :  -0.4375 0.0625 0.0625  plane waves:     619
 k-point  6 :  -0.3125 0.0625 0.0625  plane waves:     620
 k-point  7 :  -0.1875 0.0625 0.0625  plane waves:     620
 k-point  8 :  -0.0625 0.0625 0.0625  plane waves:     619
 k-point  9 :   0.1875 0.1875 0.0625  plane waves:     617
 k-point 10 :   0.3125 0.1875 0.0625  plane waves:     621
 k-point 11 :   0.4375 0.1875 0.0625  plane waves:     624
 k-point 12 :  -0.4375 0.1875 0.0625  plane waves:     627
 k-point 13 :  -0.3125 0.1875 0.0625  plane waves:     626
 k-point 14 :  -0.1875 0.1875 0.0625  plane waves:     624
 k-point 15 :  -0.0625 0.1875 0.0625  plane waves:     622
 k-point 16 :   0.3125 0.3125 0.0625  plane waves:     627
 k-point 17 :   0.4375 0.3125 0.0625  plane waves:     627
 k-point 18 :  -0.4375 0.3125 0.0625  plane waves:     631
 k-point 19 :  -0.3125 0.3125 0.0625  plane waves:     632
 k-point 20 :  -0.1875 0.3125 0.0625  plane waves:     627
 k-point 21 :  -0.0625 0.3125 0.0625  plane waves:     622
 k-point 22 :   0.4375 0.4375 0.0625  plane waves:     628
 k-point 23 :  -0.4375 0.4375 0.0625  plane waves:     630
 k-point 24 :  -0.3125 0.4375 0.0625  plane waves:     633
 k-point 25 :  -0.1875 0.4375 0.0625  plane waves:     628
 k-point 26 :  -0.0625 0.4375 0.0625  plane waves:     620
 k-point 27 :  -0.4375-0.4375 0.0625  plane waves:     634
 k-point 28 :  -0.3125-0.4375 0.0625  plane waves:     632
 k-point 29 :  -0.1875-0.4375 0.0625  plane waves:     628
 k-point 30 :  -0.3125-0.3125 0.0625  plane waves:     630
 k-point 31 :  -0.1875-0.3125 0.0625  plane waves:     623
 k-point 32 :  -0.1875-0.1875 0.0625  plane waves:     620
 k-point 33 :   0.1875 0.1875 0.1875  plane waves:     628
 k-point 34 :   0.3125 0.1875 0.1875  plane waves:     623
 k-point 35 :   0.4375 0.1875 0.1875  plane waves:     626
 k-point 36 :  -0.4375 0.1875 0.1875  plane waves:     630
 k-point 37 :  -0.3125 0.1875 0.1875  plane waves:     628
 k-point 38 :  -0.1875 0.1875 0.1875  plane waves:     621
 k-point 39 :   0.3125 0.3125 0.1875  plane waves:     620
 k-point 40 :   0.4375 0.3125 0.1875  plane waves:     626
 k-point 41 :  -0.4375 0.3125 0.1875  plane waves:     636
 k-point 42 :  -0.3125 0.3125 0.1875  plane waves:     634
 k-point 43 :  -0.1875 0.3125 0.1875  plane waves:     634
 k-point 44 :   0.4375 0.4375 0.1875  plane waves:     628
 k-point 45 :  -0.4375 0.4375 0.1875  plane waves:     638
 k-point 46 :  -0.3125 0.4375 0.1875  plane waves:     630
 k-point 47 :  -0.1875 0.4375 0.1875  plane waves:     635
 k-point 48 :  -0.4375-0.4375 0.1875  plane waves:     632
 k-point 49 :  -0.3125-0.4375 0.1875  plane waves:     633
 k-point 50 :  -0.3125-0.3125 0.1875  plane waves:     631
 k-point 51 :   0.3125 0.3125 0.3125  plane waves:     613
 k-point 52 :   0.4375 0.3125 0.3125  plane waves:     622
 k-point 53 :  -0.4375 0.3125 0.3125  plane waves:     627
 k-point 54 :  -0.3125 0.3125 0.3125  plane waves:     634
 k-point 55 :   0.4375 0.4375 0.3125  plane waves:     624
 k-point 56 :  -0.4375 0.4375 0.3125  plane waves:     630
 k-point 57 :  -0.3125 0.4375 0.3125  plane waves:     635
 k-point 58 :  -0.4375-0.4375 0.3125  plane waves:     633
 k-point 59 :   0.4375 0.4375 0.4375  plane waves:     622
 k-point 60 :  -0.4375 0.4375 0.4375  plane waves:     623

 maximum and minimum number of plane-waves per node :       638      613

 maximum number of plane-waves:       638
 maximum index in each direction: 
   IXMAX=    6   IYMAX=    6   IZMAX=    5
   IXMIN=   -6   IYMIN=   -6   IZMIN=   -6


 serial   3D FFT for wavefunctions
 parallel 3D FFT for charge:
    minimum data exchange during FFTs selected (reduces bandwidth)


 total amount of memory used by VASP MPI-rank0    33921. kBytes
=======================================================================

   base      :      30000. kBytes
   nonl-proj :       2478. kBytes
   fftplans  :        247. kBytes
   grid      :        561. kBytes
   one-center:          6. kBytes
   wavefun   :        629. kBytes
 
     INWAV:  cpu time    0.0000: real time    0.0003
 Broyden mixing: mesh for mixing (old mesh)
   NGX = 11   NGY = 11   NGZ = 11
  (NGX  = 36   NGY  = 36   NGZ  = 36)
  gives a total of   1331 points

 initial charge density was supplied:
 charge density of overlapping atoms calculated
 number of electron       8.0000000 magnetization 
 keeping initial charge density in first step


--------------------------------------------------------------------------------------------------------


 Maximum index for augmentation-charges          650 (set IRDMAX)


--------------------------------------------------------------------------------------------------------


 First call to EWALD:  gamma=   0.509
 Maximum number of real-space cells 3x 3x 3
 Maximum number of reciprocal cells 3x 3x 3

    FEWALD:  cpu time    0.0080: real time    0.0069


--------------------------------------- Iteration      1(   1)  ---------------------------------------


    POTLOK:  cpu time    0.0400: real time    0.0500
    SETDIJ:  cpu time    0.0080: real time    0.0091
     EDDAV:  cpu time    0.8040: real time    0.8072
       DOS:  cpu time    0.0000: real time    0.0035
    --------------------------------------------
      LOOP:  cpu time    0.8520: real time    0.8704

 eigenvalue-minimisations  :   968
 total energy-change (2. order) : 0.4338053E+01  (-0.2793484E+03)
 number of electron       8.0000000 magnetization 
 augmentation part        8.0000000 magnetization 

 Free energy of the ion-electron system (eV)
  ---------------------------------------------------
  alpha Z        PSCENC =         3.19253017
  Ewald energy   TEWEN  =      -224.60900013
  -Hartree energ DENC   =       -11.80091207
  -exchange      EXHF   =         0.00000000
  -V(xc)+E(xc)   XCENC  =       -18.80447467
  PAW double counting   =        65.95520812      -30.76852678
  entropy T*S    EENTRO =        -0.01371896
  eigenvalues    EBANDS =        15.05569303
  atomic energy  EATOM  =       206.13125414
  Solvation  Ediel_sol  =         0.00000000
  ---------------------------------------------------
  free energy    TOTEN  =         4.33805285 eV

  energy without entropy =        4.35177181  energy(sigma->0) =        4.34491233


--------------------------------------------------------------------------------------------------------




--------------------------------------- Iteration      1(   2)  ---------------------------------------


     EDDAV:  cpu time    1.2320: real time    1.2352
       DOS:  cpu time    0.0000: real time    0.0032
    --------------------------------------------
      LOOP:  cpu time    1.2360: real time    1.2384

 eigenvalue-minimisations  :  1520
 total energy-change (2. order) :-0.1514269E+02  (-0.1437174E+02)
 number of electron       8.0000000 magnetization 
 augmentation part        8.0000000 magnetization 

 Free energy of the ion-electron system (eV)
  ---------------------------------------------------
  alpha Z        PSCENC =         3.19253017
  Ewald energy   TEWEN  =      -224.60900013
  -Hartree energ DENC   =       -11.80091207
  -exchange      EXHF   =         0.00000000
  -V(xc)+E(xc)   XCENC  =       -18.80447467
  PAW double counting   =        65.95520812      -30.76852678
  entropy T*S    EENTRO =        -0.00000155
  eigenvalues    EBANDS =        -0.10070940
  atomic energy  EATOM  =       206.13125414
  Solvation  Ediel_sol  =         0.00000000
  ---------------------------------------------------
  free energy    TOTEN  =       -10.80463218 eV

  energy without entropy =      -10.80463063  energy(sigma->0) =      -10.80463140


--------------------------------------------------------------------------------------------------------




--------------------------------------- Iteration      1(   3)  ---------------------------------------


     EDDAV:  cpu time    0.9800: real time    0.9823
       DOS:  cpu time    0.0040: real time    0.0032
    --------------------------------------------
      LOOP:  cpu time    0.9800: real time    0.9856

 eigenvalue-minimisations  :  1192
 total energy-change (2. order) :-0.1830316E+00  (-0.1830316E+00)
 number of electron       8.0000000 magnetization 
 augmentation part        8.0000000 magnetization 

 Free energy of the ion-electron system (eV)
  ---------------------------------------------------
  alpha Z        PSCENC =         3.19253017
  Ewald energy   TEWEN  =      -224.60900013
  -Hartree energ DENC   =       -11.80091207
  -exchange      EXHF   =         0.00000000
  -V(xc)+E(xc)   XCENC  =       -18.80447467
  PAW double counting   =        65.95520812      -30.76852678
  entropy T*S    EENTRO =        -0.00000061
  eigenvalues    EBANDS =        -0.28374196
  atomic energy  EATOM  =       206.13125414
  Solvation  Ediel_sol  =         0.00000000
  ---------------------------------------------------
  free energy    TOTEN  =       -10.98766379 eV

  energy without entropy =      -10.98766318  energy(sigma->0) =      -10.98766348


--------------------------------------------------------------------------------------------------------




--------------------------------------- Iteration      1(   4)  ---------------------------------------


     EDDAV:  cpu time    1.2720: real time    1.2763
       DOS:  cpu time    0.0040: real time    0.0033
    --------------------------------------------
      LOOP:  cpu time    1.2760: real time    1.2796

 eigenvalue-minimisations  :  1568
 total energy-change (2. order) :-0.7809339E-03  (-0.7809336E-03)
 number of electron       8.0000000 magnetization 
 augmentation part        8.0000000 magnetization 

 Free energy of the ion-electron system (eV)
  ---------------------------------------------------
  alpha Z        PSCENC =         3.19253017
  Ewald energy   TEWEN  =      -224.60900013
  -Hartree energ DENC   =       -11.80091207
  -exchange      EXHF   =         0.00000000
  -V(xc)+E(xc)   XCENC  =       -18.80447467
  PAW double counting   =        65.95520812      -30.76852678
  entropy T*S    EENTRO =        -0.00000060
  eigenvalues    EBANDS =        -0.28452289
  atomic energy  EATOM  =       206.13125414
  Solvation  Ediel_sol  =         0.00000000
  ---------------------------------------------------
  free energy    TOTEN  =       -10.98844472 eV

  energy without entropy =      -10.98844412  energy(sigma->0) =      -10.98844442


--------------------------------------------------------------------------------------------------------




--------------------------------------- Iteration      1(   5)  ---------------------------------------


     EDDAV:  cpu time    0.9960: real time    1.0007
       DOS:  cpu time    0.0000: real time    0.0033
    CHARGE:  cpu time    0.0640: real time    0.0616
    MIXING:  cpu time    0.0000: real time    0.0023
    --------------------------------------------
      LOOP:  cpu time    1.0600: real time    1.0678

 eigenvalue-minimisations  :  1216
 total energy-change (2. order) :-0.7291414E-06  (-0.7289462E-06)
 number of electron       7.9999993 magnetization 
 augmentation part       -0.4682848 magnetization 

 Broyden mixing:
  rms(total) = 0.28805E+00    rms(broyden)= 0.28803E+00
  rms(prec ) = 0.82353E+00
  weight for this iteration     100.00

 Free energy of the ion-electron system (eV)
  ---------------------------------------------------
  alpha Z        PSCENC =         3.19253017
  Ewald energy   TEWEN  =      -224.60900013
  -Hartree energ DENC   =       -11.80091207
  -exchange      EXHF   =         0.00000000
  -V(xc)+E(xc)   XCENC  =       -18.80447467
  PAW double counting   =        65.95520812      -30.76852678
  entropy T*S    EENTRO =        -0.00000060
  eigenvalues    EBANDS =        -0.28452362
  atomic energy  EATOM  =       206.13125414
  Solvation  Ediel_sol  =         0.00000000
  ---------------------------------------------------
  free energy    TOTEN  =       -10.98844545 eV

  energy without entropy =      -10.98844485  energy(sigma->0) =      -10.98844515


--------------------------------------------------------------------------------------------------------




--------------------------------------- Iteration      1(   6)  ---------------------------------------


    POTLOK:  cpu time    0.0280: real time    0.0335
    SETDIJ:  cpu time    0.0080: real time    0.0084
     EDDAV:  cpu time    0.9320: real time    0.9308
       DOS:  cpu time    0.0040: real time    0.0033
    CHARGE:  cpu time    0.0600: real time    0.0608
    MIXING:  cpu time    0.0000: real time    0.0020
    --------------------------------------------
      LOOP:  cpu time    1.0320: real time    1.0388

 eigenvalue-minimisations  :  1144
 total energy-change (2. order) : 0.1035440E+00  (-0.6588852E-02)
 number of electron       7.9999993 magnetization 
 augmentation part       -0.4631571 magnetization 

 Broyden mixing:
  rms(total) = 0.17199E+00    rms(broyden)= 0.17198E+00
  rms(prec ) = 0.48929E+00
  weight for this iteration     100.00

 eigenvalues of (default mixing * dielectric matrix)
  average eigenvalue GAMMA=   2.4620
  2.4620

 Free energy of the ion-electron system (eV)
  ---------------------------------------------------
  alpha Z        PSCENC =         3.19253017
  Ewald energy   TEWEN  =      -224.60900013
  -Hartree energ DENC   =       -13.21207105
  -exchange      EXHF   =         0.00000000
  -V(xc)+E(xc)   XCENC  =       -18.58250892
  PAW double counting   =        69.27826540      -34.18281343
  entropy T*S    EENTRO =        -0.00000345
  eigenvalues    EBANDS =         1.09944585
  atomic energy  EATOM  =       206.13125414
  Solvation  Ediel_sol  =         0.00000000
  ---------------------------------------------------
  free energy    TOTEN  =       -10.88490140 eV

  energy without entropy =      -10.88489795  energy(sigma->0) =      -10.88489968


--------------------------------------------------------------------------------------------------------




--------------------------------------- Iteration      1(   7)  ---------------------------------------


    POTLOK:  cpu time    0.0280: real time    0.0330
    SETDIJ:  cpu time    0.0080: real time    0.0084
     EDDAV:  cpu time    0.9720: real time    0.9700
       DOS:  cpu time    0.0000: real time    0.0035
    CHARGE:  cpu time    0.0600: real time    0.0601
    MIXING:  cpu time    0.0040: real time    0.0018
    --------------------------------------------
      LOOP:  cpu time    1.0720: real time    1.0770

 eigenvalue-minimisations  :  1200
 total energy-change (2. order) : 0.4913293E-01  (-0.1278210E-01)
 number of electron       7.9999993 magnetization 
 augmentation part       -0.4569812 magnetization 

 Broyden mixing:
  rms(total) = 0.14281E-01    rms(broyden)= 0.14281E-01
  rms(prec ) = 0.36948E-01
  weight for this iteration     100.00

 eigenvalues of (default mixing * dielectric matrix)
  average eigenvalue GAMMA=   2.4733
  2.4733  2.4733

 Free energy of the ion-electron system (eV)
  ---------------------------------------------------
  alpha Z        PSCENC =         3.19253017
  Ewald energy   TEWEN  =      -224.60900013
  -Hartree energ DENC   =       -15.53055844
  -exchange      EXHF   =         0.00000000
  -V(xc)+E(xc)   XCENC  =       -18.21049725
  PAW double counting   =        73.62778045      -38.64820486
  entropy T*S    EENTRO =        -0.00002548
  eigenvalues    EBANDS =         3.21095292
  atomic energy  EATOM  =       206.13125414
  Solvation  Ediel_sol  =         0.00000000
  ---------------------------------------------------
  free energy    TOTEN  =       -10.83576848 eV

  energy without entropy =      -10.83574300  energy(sigma->0) =      -10.83575574


--------------------------------------------------------------------------------------------------------




--------------------------------------- Iteration      1(   8)  ---------------------------------------


    POTLOK:  cpu time    0.0280: real time    0.0330
    SETDIJ:  cpu time    0.0080: real time    0.0084
     EDDAV:  cpu time    0.8760: real time    0.8747
       DOS:  cpu time    0.0000: real time    0.0035
    CHARGE:  cpu time    0.0600: real time    0.0601
    MIXING:  cpu time    0.0040: real time    0.0018
    --------------------------------------------
      LOOP:  cpu time    0.9760: real time    0.9815

 eigenvalue-minimisations  :  1080
 total energy-change (2. order) :-0.1330039E-02  (-0.3801615E-03)
 number of electron       7.9999993 magnetization 
 augmentation part       -0.4579195 magnetization 

 Broyden mixing:
  rms(total) = 0.25237E-02    rms(broyden)= 0.25228E-02
  rms(prec ) = 0.83626E-02
  weight for this iteration     100.00

 eigenvalues of (default mixing * dielectric matrix)
  average eigenvalue GAMMA=   2.1274
  1.3326  2.8128  2.2369

 Free energy of the ion-electron system (eV)
  ---------------------------------------------------
  alpha Z        PSCENC =         3.19253017
  Ewald energy   TEWEN  =      -224.60900013
  -Hartree energ DENC   =       -15.49389568
  -exchange      EXHF   =         0.00000000
  -V(xc)+E(xc)   XCENC  =       -18.20544122
  PAW double counting   =        72.76097070      -37.75440420
  entropy T*S    EENTRO =        -0.00001972
  eigenvalues    EBANDS =         3.14090742
  atomic energy  EATOM  =       206.13125414
  Solvation  Ediel_sol  =         0.00000000
  ---------------------------------------------------
  free energy    TOTEN  =       -10.83709851 eV

  energy without entropy =      -10.83707880  energy(sigma->0) =      -10.83708866


--------------------------------------------------------------------------------------------------------




--------------------------------------- Iteration      1(   9)  ---------------------------------------


    POTLOK:  cpu time    0.0280: real time    0.0314
    SETDIJ:  cpu time    0.0080: real time    0.0084
     EDDAV:  cpu time    0.7080: real time    0.7097
       DOS:  cpu time    0.0040: real time    0.0033
    --------------------------------------------
      LOOP:  cpu time    0.7480: real time    0.7534

 eigenvalue-minimisations  :   800
 total energy-change (2. order) :-0.1058216E-03  (-0.1114729E-04)
 number of electron       7.9999993 magnetization 
 augmentation part       -0.4579195 magnetization 

 Free energy of the ion-electron system (eV)
  ---------------------------------------------------
  alpha Z        PSCENC =         3.19253017
  Ewald energy   TEWEN  =      -224.60900013
  -Hartree energ DENC   =       -15.53409247
  -exchange      EXHF   =         0.00000000
  -V(xc)+E(xc)   XCENC  =       -18.19890401
  PAW double counting   =        72.73908544      -37.73221690
  entropy T*S    EENTRO =        -0.00001948
  eigenvalues    EBANDS =         3.17415890
  atomic energy  EATOM  =       206.13125414
  Solvation  Ediel_sol  =         0.00000000
  ---------------------------------------------------
  free energy    TOTEN  =       -10.83720434 eV

  energy without entropy =      -10.83718486  energy(sigma->0) =      -10.83719460


--------------------------------------------------------------------------------------------------------




 average (electrostatic) potential at core
  the test charge radii are     0.9892
  (the norm of the test charge is              1.0000)
       1 -83.8275       2 -83.8275
 
 
 
 E-fermi :   5.6620     XC(G=0):  -9.2099     alpha+bet :-11.3732


 k-point     1 :       0.0625    0.0625    0.0625
  band No.  band energies     occupation 
      1      -6.2483      2.00000
      2       4.7757      2.00000
      3       5.2319      1.99765
      4       5.2319      1.99765
      5       7.8415      0.00000
      6       7.9734      0.00000
      7       7.9734      0.00000
      8       8.5621      0.00000

 k-point     2 :       0.1875    0.0625    0.0625
  band No.  band energies     occupation 
      1      -5.9891      2.00000
      2       3.2866      2.00000
      3       4.4567      2.00000
      4       5.1153      1.99989
      5       7.8576      0.00000
      6       8.2121      0.00000
      7       8.4756      0.00000
      8      10.0859      0.00000

 k-point     3 :       0.3125    0.0625    0.0625
  band No.  band energies     occupation 
      1      -5.3647      2.00000
      2       1.1256      2.00000
      3       3.9782      2.00000
      4       4.6677      2.00000
      5       7.4048      0.00000
      6       8.7034      0.00000
      7       8.9790      0.00000
      8      11.6968      0.00000

 k-point     4 :       0.4375    0.0625    0.0625
  band No.  band energies     occupation 
      1      -4.4984      2.00000
      2      -0.6970      2.00000
      3       3.7633      2.00000
      4       4.2737      2.00000
      5       7.0921      0.00000
      6       8.7870      0.00000
      7       8.8007      0.00000
      8      12.9990      0.00000

 k-point     5 :      -0.4375    0.0625    0.0625
  band No.  band energies     occupation 
      1      -4.0733      2.00000
      2      -1.3671      2.00000
      3       3.8080      2.00000
      4       4.0640      2.00000
      5       7.0138      0.00000
      6       8.6045      0.00000
      7       8.8661      0.00000
      8      13.1014      0.00000

 k-point     6 :      -0.3125    0.0625    0.0625
  band No.  band energies     occupation 
      1      -4.7940      2.00000
      2      -0.1596      2.00000
      3       4.0848      2.00000
      4       4.0869      2.00000
      5       7.1819      0.00000
      6       8.5982      0.00000
      7       9.1047      0.00000
      8      12.1392      0.00000

 k-point     7 :      -0.1875    0.0625    0.0625
  band No.  band energies     occupation 
      1      -5.6093      2.00000
      2       1.8335      2.00000
      3       4.3572      2.00000
      4       4.5363      2.00000
      5       7.5470      0.00000
      6       8.4255      0.00000
      7       9.1345      0.00000
      8      10.9310      0.00000

 k-point     8 :      -0.0625    0.0625    0.0625
  band No.  band energies     occupation 
      1      -6.1180      2.00000
      2       4.0235      2.00000
      3       4.8240      2.00000
      4       4.9678      2.00000
      5       7.6922      0.00000
      6       8.1819      0.00000
      7       8.5306      0.00000
      8       9.3360      0.00000

 k-point     9 :       0.1875    0.1875    0.0625
  band No.  band energies     occupation 
      1      -5.8586      2.00000
      2       3.1288      2.00000
      3       4.2871      2.00000
      4       4.3569      2.00000
      5       7.2882      0.00000
      6       8.9034      0.00000
      7       9.3611      0.00000
      8       9.8180      0.00000

 k-point    10 :       0.3125    0.1875    0.0625
  band No.  band energies     occupation 
      1      -5.3520      2.00000
      2       1.6637      2.00000
      3       3.3487      2.00000
      4       4.1081      2.00000
      5       7.4502      0.00000
      6       9.0074      0.00000
      7       9.7594      0.00000
      8      10.1383      0.00000

 k-point    11 :       0.4375    0.1875    0.0625
  band No.  band energies     occupation 
      1      -4.5384      2.00000
      2      -0.1256      2.00000
      3       2.8556      2.00000
      4       3.7163      2.00000
      5       7.6267      0.00000
      6       8.9990      0.00000
      7      10.1664      0.00000
      8      10.4738      0.00000

 k-point    12 :      -0.4375    0.1875    0.0625
  band No.  band energies     occupation 
      1      -3.8129      2.00000
      2      -1.2828      2.00000
      3       2.5717      2.00000
      4       3.6279      2.00000
      5       7.6771      0.00000
      6       8.7366      0.00000
      7      10.0317      0.00000
      8      12.4179      0.00000

 k-point    13 :      -0.3125    0.1875    0.0625
  band No.  band energies     occupation 
      1      -4.2479      2.00000
      2      -0.6240      2.00000
      3       2.5070      2.00000
      4       3.9002      2.00000
      5       7.9239      0.00000
      6       8.6729      0.00000
      7       9.9718      0.00000
      8      11.6951      0.00000

 k-point    14 :      -0.1875    0.1875    0.0625
  band No.  band energies     occupation 
      1      -5.1130      2.00000
      2       1.0370      2.00000
      3       2.8130      2.00000
      4       4.3871      2.00000
      5       8.2370      0.00000
      6       8.5613      0.00000
      7       9.8442      0.00000
      8      10.3412      0.00000

 k-point    15 :      -0.0625    0.1875    0.0625
  band No.  band energies     occupation 
      1      -5.7328      2.00000
      2       2.4811      2.00000
      3       3.8998      2.00000
      4       4.7456      2.00000
      5       7.8214      0.00000
      6       8.4015      0.00000
      7       9.1804      0.00000
      8      10.3559      0.00000

 k-point    16 :       0.3125    0.3125    0.0625
  band No.  band energies     occupation 
      1      -4.9645      2.00000
      2       1.1504      2.00000
      3       3.2126      2.00000
      4       3.3300      2.00000
      5       6.5068      0.00000
      6       8.1403      0.00000
      7      11.1548      0.00000
      8      11.3102      0.00000

 k-point    17 :       0.4375    0.3125    0.0625
  band No.  band energies     occupation 
      1      -4.2390      2.00000
      2      -0.0503      2.00000
      3       2.4565      2.00000
      4       2.9971      2.00000
      5       6.8149      0.00000
      6       7.9829      0.00000
      7      11.1207      0.00000
      8      12.2726      0.00000

 k-point    18 :      -0.4375    0.3125    0.0625
  band No.  band energies     occupation 
      1      -3.3785      2.00000
      2      -1.1999      2.00000
      3       1.6473      2.00000
      4       2.9661      2.00000
      5       7.0485      0.00000
      6       9.5973      0.00000
      7      10.7067      0.00000
      8      12.1855      0.00000

 k-point    19 :      -0.3125    0.3125    0.0625
  band No.  band energies     occupation 
      1      -3.4493      2.00000
      2      -1.1078      2.00000
      3       1.3114      2.00000
      4       3.2966      2.00000
      5       7.4321      0.00000
      6      10.2900      0.00000
      7      11.5325      0.00000
      8      11.8930      0.00000

 k-point    20 :      -0.1875    0.3125    0.0625
  band No.  band energies     occupation 
      1      -4.3094      2.00000
      2      -0.1766      2.00000
      3       1.8873      2.00000
      4       3.8584      2.00000
      5       8.0189      0.00000
      6       9.2131      0.00000
      7      10.5825      0.00000
      8      10.8911      0.00000

 k-point    21 :      -0.0625    0.3125    0.0625
  band No.  band energies     occupation 
      1      -5.0044      2.00000
      2       0.4679      2.00000
      3       3.4493      2.00000
      4       4.2903      2.00000
      5       7.6840      0.00000
      6       8.6020      0.00000
      7       9.4415      0.00000
      8      11.0984      0.00000

 k-point    22 :       0.4375    0.4375    0.0625
  band No.  band energies     occupation 
      1      -3.6066      2.00000
      2      -0.8898      2.00000
      3       2.5495      2.00000
      4       2.7553      2.00000
      5       6.1334      0.00086
      6       6.8384      0.00000
      7      13.3848      0.00000
      8      13.4141      0.00000

 k-point    23 :      -0.4375    0.4375    0.0625
  band No.  band energies     occupation 
      1      -2.7297      2.00000
      2      -1.8484      2.00000
      3       2.0182      2.00000
      4       2.5239      2.00000
      5       6.5568      0.00000
      6       7.2634      0.00000
      7      13.1558      0.00000
      8      14.1111      0.00000

 k-point    24 :      -0.3125    0.4375    0.0625
  band No.  band energies     occupation 
      1      -2.8320      2.00000
      2      -1.6821      2.00000
      3       1.3217      2.00000
      4       2.8274      2.00000
      5       6.9077      0.00000
      6       9.4413      0.00000
      7      11.6733      0.00000
      8      12.7714      0.00000

 k-point    25 :      -0.1875    0.4375    0.0625
  band No.  band energies     occupation 
      1      -3.5650      2.00000
      2      -1.2549      2.00000
      3       1.8301      2.00000
      4       3.4058      2.00000
      5       7.5419      0.00000
      6       9.4529      0.00000
      7      10.9484      0.00000
      8      12.1761      0.00000

 k-point    26 :      -0.0625    0.4375    0.0625
  band No.  band energies     occupation 
      1      -4.1510      2.00000
      2      -1.0877      2.00000
      3       3.2728      2.00000
      4       3.9686      2.00000
      5       7.4745      0.00000
      6       8.5391      0.00000
      7       9.2796      0.00000
      8      12.7394      0.00000

 k-point    27 :      -0.4375   -0.4375    0.0625
  band No.  band energies     occupation 
      1      -2.7771      2.00000
      2      -1.8638      2.00000
      3       2.4165      2.00000
      4       2.6378      2.00000
      5       6.1364      0.00080
      6       6.4872      0.00000
      7      14.4324      0.00000
      8      14.4841      0.00000

 k-point    28 :      -0.3125   -0.4375    0.0625
  band No.  band energies     occupation 
      1      -3.5255      2.00000
      2      -0.9522      2.00000
      3       2.1682      2.00000
      4       2.6786      2.00000
      5       6.6372      0.00000
      6       7.5120      0.00000
      7      12.1125      0.00000
      8      13.3947      0.00000

 k-point    29 :      -0.1875   -0.4375    0.0625
  band No.  band energies     occupation 
      1      -3.9844      2.00000
      2      -0.6711      2.00000
      3       2.2115      2.00000
      4       3.2554      2.00000
      5       7.3112      0.00000
      6       9.7743      0.00000
      7       9.9399      0.00000
      8      11.1590      0.00000

 k-point    30 :      -0.3125   -0.3125    0.0625
  band No.  band energies     occupation 
      1      -4.3396      2.00000
      2       0.1239      2.00000
      3       2.8153      2.00000
      4       2.9879      2.00000
      5       6.2554      0.00003
      6       7.4025      0.00000
      7      12.2534      0.00000
      8      12.3490      0.00000

 k-point    31 :      -0.1875   -0.3125    0.0625
  band No.  band energies     occupation 
      1      -4.8516      2.00000
      2       0.8245      2.00000
      3       2.8588      2.00000
      4       3.4851      2.00000
      5       7.0926      0.00000
      6       8.6303      0.00000
      7      10.2032      0.00000
      8      11.1759      0.00000

 k-point    32 :      -0.1875   -0.1875    0.0625
  band No.  band energies     occupation 
      1      -5.4728      2.00000
      2       2.1614      2.00000
      3       3.7353      2.00000
      4       3.7707      2.00000
      5       6.8652      0.00000
      6       8.9363      0.00000
      7      10.1514      0.00000
      8      10.3075      0.00000

 k-point    33 :       0.1875    0.1875    0.1875
  band No.  band energies     occupation 
      1      -5.8619      2.00000
      2       2.5873      2.00000
      3       4.8058      2.00000
      4       4.8058      2.00000
      5       7.4057      0.00000
      6       8.5731      0.00000
      7       8.5731      0.00000
      8      10.7104      0.00000

 k-point    34 :       0.3125    0.1875    0.1875
  band No.  band energies     occupation 
      1      -5.4829      2.00000
      2       1.7523      2.00000
      3       3.3471      2.00000
      4       4.8189      2.00000
      5       8.0582      0.00000
      6       8.6959      0.00000
      7       8.9699      0.00000
      8      10.8765      0.00000

 k-point    35 :       0.4375    0.1875    0.1875
  band No.  band energies     occupation 
      1      -4.7620      2.00000
      2       0.4129      2.00000
      3       2.3033      2.00000
      4       4.3322      2.00000
      5       7.9553      0.00000
      6       9.4345      0.00000
      7       9.6184      0.00000
      8      11.1622      0.00000

 k-point    36 :      -0.4375    0.1875    0.1875
  band No.  band energies     occupation 
      1      -3.9047      2.00000
      2      -1.0155      2.00000
      3       2.1431      2.00000
      4       3.8208      2.00000
      5       7.4955      0.00000
      6       9.5783      0.00000
      7       9.8347      0.00000
      8      12.9925      0.00000

 k-point    37 :      -0.3125    0.1875    0.1875
  band No.  band energies     occupation 
      1      -3.8892      2.00000
      2      -1.0432      2.00000
      3       2.4284      2.00000
      4       3.5153      2.00000
      5       7.2401      0.00000
      6       9.6364      0.00000
      7      10.1722      0.00000
      8      11.1168      0.00000

 k-point    38 :      -0.1875    0.1875    0.1875
  band No.  band energies     occupation 
      1      -4.7450      2.00000
      2       0.4098      2.00000
      3       3.0232      2.00000
      4       3.4943      2.00000
      5       7.1781      0.00000
      6       9.2984      0.00000
      7       9.9283      0.00000
      8      10.5198      0.00000

 k-point    39 :       0.3125    0.3125    0.1875
  band No.  band energies     occupation 
      1      -5.2348      2.00000
      2       1.1095      2.00000
      3       3.8177      2.00000
      4       3.8988      2.00000
      5       7.5389      0.00000
      6       8.8278      0.00000
      7       9.7915      0.00000
      8      10.1909      0.00000

 k-point    40 :       0.4375    0.3125    0.1875
  band No.  band energies     occupation 
      1      -4.6301      2.00000
      2       0.3400      2.00000
      3       2.3585      2.00000
      4       3.7081      2.00000
      5       8.0345      0.00000
      6       9.0109      0.00000
      7       9.5609      0.00000
      8      11.0051      0.00000

 k-point    41 :      -0.4375    0.3125    0.1875
  band No.  band energies     occupation 
      1      -3.7725      2.00000
      2      -0.7355      2.00000
      3       1.6003      2.00000
      4       3.1651      2.00000
      5       8.4769      0.00000
      6       8.9544      0.00000
      7      10.1990      0.00000
      8      12.0741      0.00000

 k-point    42 :      -0.3125    0.3125    0.1875
  band No.  band energies     occupation 
      1      -3.3066      2.00000
      2      -1.3221      2.00000
      3       1.5977      2.00000
      4       2.8660      2.00000
      5       8.0270      0.00000
      6       9.2733      0.00000
      7      10.9626      0.00000
      8      12.1883      0.00000

 k-point    43 :      -0.1875    0.3125    0.1875
  band No.  band energies     occupation 
      1      -4.0448      2.00000
      2      -0.3603      2.00000
      3       2.0098      2.00000
      4       3.0372      2.00000
      5       7.7635      0.00000
      6       8.9627      0.00000
      7       9.7660      0.00000
      8      12.1906      0.00000

 k-point    44 :       0.4375    0.4375    0.1875
  band No.  band energies     occupation 
      1      -4.1500      2.00000
      2      -0.2994      2.00000
      3       2.3275      2.00000
      4       3.1743      2.00000
      5       6.8172      0.00000
      6       8.7982      0.00000
      7      10.9473      0.00000
      8      11.3234      0.00000

 k-point    45 :      -0.4375    0.4375    0.1875
  band No.  band energies     occupation 
      1      -3.3748      2.00000
      2      -1.0871      2.00000
      3       1.7793      2.00000
      4       2.5226      2.00000
      5       7.5695      0.00000
      6       8.5639      0.00000
      7      10.6403      0.00000
      8      13.3562      0.00000

 k-point    46 :      -0.3125    0.4375    0.1875
  band No.  band energies     occupation 
      1      -2.5985      2.00000
      2      -1.8223      2.00000
      3       1.4784      2.00000
      4       2.0427      2.00000
      5       8.6667      0.00000
      6       9.5878      0.00000
      7      10.1936      0.00000
      8      11.1886      0.00000

 k-point    47 :      -0.1875    0.4375    0.1875
  band No.  band energies     occupation 
      1      -3.1803      2.00000
      2      -1.2849      2.00000
      3       1.4660      2.00000
      4       2.4993      2.00000
      5       8.7624      0.00000
      6       9.1685      0.00000
      7       9.8953      0.00000
      8      12.3251      0.00000

 k-point    48 :      -0.4375   -0.4375    0.1875
  band No.  band energies     occupation 
      1      -2.7535      2.00000
      2      -1.7972      2.00000
      3       1.5778      2.00000
      4       2.8428      2.00000
      5       6.4041      0.00000
      6       8.2508      0.00000
      7      13.0845      0.00000
      8      13.2432      0.00000

 k-point    49 :      -0.3125   -0.4375    0.1875
  band No.  band energies     occupation 
      1      -2.6563      2.00000
      2      -1.8306      2.00000
      3       1.6681      2.00000
      4       2.2459      2.00000
      5       7.4704      0.00000
      6       8.3631      0.00000
      7      11.6220      0.00000
      8      12.7056      0.00000

 k-point    50 :      -0.3125   -0.3125    0.1875
  band No.  band energies     occupation 
      1      -3.4684      2.00000
      2      -1.0469      2.00000
      3       1.8304      2.00000
      4       2.9544      2.00000
      5       6.5468      0.00000
      6       8.4323      0.00000
      7      12.0792      0.00000
      8      12.2041      0.00000

 k-point    51 :       0.3125    0.3125    0.3125
  band No.  band energies     occupation 
      1      -5.1321      2.00000
      2       0.4462      2.00000
      3       4.4035      2.00000
      4       4.4035      2.00000
      5       6.9528      0.00000
      6       8.8206      0.00000
      7       8.8206      0.00000
      8      12.7511      0.00000

 k-point    52 :       0.4375    0.3125    0.3125
  band No.  band energies     occupation 
      1      -4.6697      2.00000
      2      -0.1225      2.00000
      3       2.9804      2.00000
      4       4.3174      2.00000
      5       7.6871      0.00000
      6       9.0333      0.00000
      7       9.0860      0.00000
      8      12.1680      0.00000

 k-point    53 :      -0.4375    0.3125    0.3125
  band No.  band energies     occupation 
      1      -3.9064      2.00000
      2      -0.6660      2.00000
      3       1.5224      2.00000
      4       3.7594      2.00000
      5       7.4348      0.00000
      6      10.4311      0.00000
      7      10.5757      0.00000
      8      11.9077      0.00000

 k-point    54 :      -0.3125    0.3125    0.3125
  band No.  band energies     occupation 
      1      -3.1174      2.00000
      2      -1.4320      2.00000
      3       1.2039      2.00000
      4       3.2326      2.00000
      5       6.8517      0.00000
      6      10.6584      0.00000
      7      11.6678      0.00000
      8      11.8722      0.00000

 k-point    55 :       0.4375    0.4375    0.3125
  band No.  band energies     occupation 
      1      -4.3682      2.00000
      2      -0.6603      2.00000
      3       3.2969      2.00000
      4       3.7767      2.00000
      5       7.4423      0.00000
      6       8.7876      0.00000
      7       9.5607      0.00000
      8      11.5438      0.00000

 k-point    56 :      -0.4375    0.4375    0.3125
  band No.  band energies     occupation 
      1      -3.7717      2.00000
      2      -1.0246      2.00000
      3       2.0415      2.00000
      4       3.3231      2.00000
      5       8.2154      0.00000
      6       8.5879      0.00000
      7      11.0181      0.00000
      8      11.3066      0.00000

 k-point    57 :      -0.3125    0.4375    0.3125
  band No.  band energies     occupation 
      1      -2.9831      2.00000
      2      -1.5011      2.00000
      3       1.2929      2.00000
      4       2.6385      2.00000
      5       7.9052      0.00000
      6      10.1028      0.00000
      7      10.8498      0.00000
      8      11.3524      0.00000

 k-point    58 :      -0.4375   -0.4375    0.3125
  band No.  band energies     occupation 
      1      -3.4276      2.00000
      2      -1.3017      2.00000
      3       1.6708      2.00000
      4       3.3290      2.00000
      5       6.9923      0.00000
      6      10.6149      0.00000
      7      10.9124      0.00000
      8      10.9249      0.00000

 k-point    59 :       0.4375    0.4375    0.4375
  band No.  band energies     occupation 
      1      -4.2802      2.00000
      2      -1.1408      2.00000
      3       4.1874      2.00000
      4       4.1874      2.00000
      5       6.7010      0.00000
      6       8.7015      0.00000
      7       8.7015      0.00000
      8      13.0061      0.00000

 k-point    60 :      -0.4375    0.4375    0.4375
  band No.  band energies     occupation 
      1      -3.9439      2.00000
      2      -1.3153      2.00000
      3       2.9928      2.00000
      4       3.9307      2.00000
      5       7.4532      0.00000
      6       8.8011      0.00000
      7       9.2619      0.00000
      8      13.3302      0.00000


--------------------------------------------------------------------------------------------------------


 soft charge-density along one line, spin component           1
         0         1         2         3         4         5         6         7         8         9
 total charge-density along one line
 
 pseudopotential strength for first ion, spin component:           1
 18.472  -0.000  -0.000  -0.000  -0.000   0.000   0.000   0.000
 -0.000   0.006   0.000   0.000   0.000  -0.000  -0.000  -0.000
 -0.000   0.000   4.184  -0.000  -0.000  -0.004   0.000   0.000
 -0.000   0.000  -0.000   4.184  -0.000   0.000  -0.004   0.000
 -0.000   0.000  -0.000  -0.000   4.184   0.000   0.000  -0.004
  0.000  -0.000  -0.004   0.000   0.000   0.005  -0.000  -0.000
  0.000  -0.000   0.000  -0.004   0.000  -0.000   0.005  -0.000
  0.000  -0.000   0.000   0.000  -0.004  -0.000  -0.000   0.005
 total augmentation occupancy for first ion, spin component:           1
  1.502  -0.717  -0.000  -0.000   0.000   0.000   0.000   0.000
 -0.717   0.693   0.000   0.000   0.000   0.000   0.000   0.000
 -0.000   0.000   0.996  -0.000   0.000  -0.531   0.000  -0.000
 -0.000   0.000  -0.000   0.996   0.000   0.000  -0.531  -0.000
  0.000   0.000   0.000   0.000   0.996  -0.000  -0.000  -0.531
  0.000   0.000  -0.531   0.000  -0.000   0.334  -0.000   0.000
  0.000   0.000   0.000  -0.531  -0.000  -0.000   0.334   0.000
 -0.000   0.000  -0.000  -0.000  -0.531   0.000   0.000   0.334


------------------------ aborting loop because EDIFF is reached ----------------------------------------


    CHARGE:  cpu time    0.0600: real time    0.0597
    FORLOC:  cpu time    0.0040: real time    0.0009
    FORNL :  cpu time    0.0240: real time    0.0243
    STRESS:  cpu time    0.2800: real time    0.2807
    FORCOR:  cpu time    0.0200: real time    0.0215
    FORHAR:  cpu time    0.0040: real time    0.0054
    MIXING:  cpu time    0.0040: real time    0.0015
    OFIELD:  cpu time    0.0000: real time    0.0005

  FORCE on cell =-STRESS in cart. coord.  units (eV):
  Direction    XX          YY          ZZ          XY          YZ          ZX
  --------------------------------------------------------------------------------------
  Alpha Z     3.19253     3.19253     3.19253
  Ewald     -74.86970   -74.86970   -74.86970    -0.00000    -0.00000     0.00000
  Hartree     5.18147     5.18147     5.18147     0.00000     0.00000     0.00000
  E(xc)     -25.07021   -25.07021   -25.07022    -0.00000    -0.00000    -0.00000
  Local     -29.97719   -29.97719   -29.97719     0.00004     0.00004     0.00004
  n-local    76.84016    79.38551    74.64540     1.01268    -1.10249     0.04610
  augment   -11.64871   -11.64871   -11.64871    -0.00003    -0.00003    -0.00003
  Kinetic    56.96007    55.30436    54.38640     0.83954    -0.93510     0.04746
  Fock        0.00000     0.00000     0.00000     0.00000     0.00000     0.00000
  -------------------------------------------------------------------------------------
  Total      -0.68451    -0.68451    -0.68451    -0.00000    -0.00000     0.00000
  in kB     -26.00244   -26.00244   -26.00244    -0.00000    -0.00000     0.00000
  external pressure =      -26.00 kB  Pullay stress =        0.00 kB


 VOLUME and BASIS-vectors are now :
 -----------------------------------------------------------------------------
  energy-cutoff  :      350.00
  volume of cell :       42.18
      direct lattice vectors                 reciprocal lattice vectors
     0.000000000  2.762801000  2.762801000    -0.180975756  0.180975756  0.180975756
     2.762801000  0.000000000  2.762801000     0.180975756 -0.180975756  0.180975756
     2.762801000  2.762801000  0.000000000     0.180975756  0.180975756 -0.180975756

  length of vectors
     3.907190644  3.907190644  3.907190644     0.313459205  0.313459205  0.313459205


 FORCES acting on ions
    electron-ion (+dipol)            ewald-force                    non-local-force                 convergence-correction
 -----------------------------------------------------------------------------------------------
   0.168E-05 0.168E-05 0.173E-05   0.264E-14 0.418E-14 0.555E-14   0.591E-17 -.449E-17 0.461E-17   -.483E-06 -.483E-06 -.483E-06
   -.168E-05 -.168E-05 -.173E-05   -.241E-14 -.432E-14 -.561E-14   -.689E-17 0.352E-17 0.298E-17   0.483E-06 0.483E-06 0.483E-06
 -----------------------------------------------------------------------------------------------
   -.587E-13 -.837E-13 -.558E-13   0.236E-15 -.136E-15 -.596E-16   -.973E-18 -.973E-18 0.759E-17   -.225E-14 -.999E-16 -.197E-14
 
 
 POSITION                                       TOTAL-FORCE (eV/Angst)
 -----------------------------------------------------------------------------------
      2.76280      2.76280      2.76280        -0.000000     -0.000000     -0.000000
      4.14420      4.14420      4.14420         0.000000      0.000000      0.000000
 -----------------------------------------------------------------------------------
    total drift:                               -0.000000     -0.000000     -0.000000


--------------------------------------------------------------------------------------------------------



  FREE ENERGIE OF THE ION-ELECTRON SYSTEM (eV)
  ---------------------------------------------------
  free  energy   TOTEN  =       -10.83720434 eV

  energy  without entropy=      -10.83718486  energy(sigma->0) =      -10.83719460
 


--------------------------------------------------------------------------------------------------------


    POTLOK:  cpu time    0.0400: real time    0.0470


--------------------------------------------------------------------------------------------------------




--------------------------------------------------------------------------------------------------------


  
 reached required accuracy - stopping structural energy minimisation
 writing wavefunctions
     LOOP+:  cpu time   10.9080: real time   11.6928
    4ORBIT:  cpu time    0.0000: real time    0.0000

 total amount of memory used by VASP MPI-rank0    33921. kBytes
=======================================================================

   base      :      30000. kBytes
   nonl-proj :       2478. kBytes
   fftplans  :        247. kBytes
   grid      :        561. kBytes
   one-center:          6. kBytes
   wavefun   :        629. kBytes
 
  
  
 General timing and accounting informations for this job:
 ========================================================
  
                  Total CPU time used (sec):       15.636
                            User time (sec):       13.484
                          System time (sec):        2.152
                         Elapsed time (sec):       17.913
  
                   Maximum memory used (kb):        9636.
                   Average memory used (kb):           0.
  
                          Minor page faults:        38173
                          Major page faults:           17
                 Voluntary context switches:        39020
