unknown system                          
   1.00000000000000     
    -2.428396    2.428396    1.337484
     2.428396   -2.428396    1.337484
     2.428396    2.428396   -1.337484
   Si
     2
Direct
  0.750000  0.250000  0.500000
  0.500000  0.500000  0.000000
 
   36   36   36
  9.7242      9.6545      9.4519      9.1337      8.7249      8.2531      7.7442      7.2194      6.6948      6.1832    
  5.6957      5.2431      4.8358      4.4831      4.1914      3.9645      3.8034      3.7074      3.6755      3.7074    
  3.8034      3.9645      4.1914      4.4831      4.8358      5.2431      5.6957      6.1832      6.6948      7.2194    
  7.7442      8.2531      8.7249      9.1337      9.4519      9.6545      9.6545      9.8087      9.8217      9.6964    
  9.4474      9.0970      8.6703      8.1911      7.6794      7.1512      6.6203      6.1002      5.6047      5.1479    
  4.7420      4.3961      4.1155      3.9022      3.7559      3.6754      3.6598      3.7091      3.8240      4.0051    
  4.2520      4.5623      4.9315      5.3533      5.8206      6.3257      6.8599      7.4115      7.9637      8.4935    
  8.9721      9.3686      9.4519      9.8217      10.057      10.145      10.086      9.8938      9.5884      9.1937    
  8.7321      8.2224      7.6801      7.1197      6.5566      6.0079      5.4911      5.0223      4.6135      4.2725    
  4.0025      3.8038      3.6750      3.6147      3.6222      3.6978      3.8418      4.0540      4.3330      4.6763    
  5.0805      5.5416      6.0549      6.6137      7.2066      7.8157      8.4150      8.9721      9.1337      9.6964    
  10.145      10.451      10.600      10.594      10.443      10.169      9.7946      9.3415      8.8264      8.2633    
  7.6663      7.0523      6.4415      5.8558      5.3156      4.8369      4.4304      4.1011      3.8496      3.6745    
  3.5736      3.5454      3.5892      3.7049      3.8925      4.1517      4.4819      4.8824      5.3525      5.8897    
  6.4887      7.1375      7.8157      8.4935      8.7249      9.4474      10.086      10.600      10.961      11.154    
  11.180      11.054      10.799      10.438      9.9894      9.4663      8.8798      8.2424      7.5721      6.8925    
  6.2306      5.6124      5.0589      4.5840      4.1946      3.8920      3.6742      3.5379      3.4805      3.5002    
  3.5966      3.7699      4.0208      4.3510      4.7625      5.2570      5.8342      6.4887      7.2066      7.9637    
  8.2531      9.0970      9.8938      10.594      11.154      11.545      11.750      11.776      11.652      11.410    
  11.070      10.639      10.116      9.5075      8.8290      8.0993      7.3461      6.6030      5.9025      5.2715    
  4.7278      4.2801      3.9299      3.6742      3.5086      3.4289      3.4326      3.5186      3.6876      3.9419    
  4.2852      4.7223      5.2570      5.8897      6.6137      7.4115      7.7442      8.6703      9.5884      10.443    
  11.180      11.750      12.110      12.261      12.239      12.097      11.877      11.590      11.219      10.735    
  10.124      9.4064      8.6159      7.7865      6.9595      6.1753      5.4672      4.8569      4.3547      3.9620    
  3.6745      3.4862      3.3916      3.3871      3.4715      3.6463      3.9155      4.2852      4.7625      5.3525    
  6.0549      6.8599      7.2194      8.1911      9.1937      10.169      11.054      11.776      12.261      12.491    
  12.512      12.405      12.247      12.084      11.906      11.658      11.270      10.698      9.9554      9.1042    
  8.1979      7.2868      6.4205      5.6385      4.9664      4.4158      3.9872      3.6750      3.4713      3.3691    
  3.3642      3.4557      3.6463      3.9419      4.3510      4.8824      5.5416      6.3257      6.6948      7.6794    
  8.7321      9.7946      10.799      11.652      12.239      12.512      12.511      12.340      12.130      11.987    
  11.945      11.955      11.907      11.680      11.195      10.456      9.5473      8.5652      7.5729      6.6287    
  5.7789      5.0524      4.4612      4.0047      3.6754      3.4638      3.3616      3.3642      3.4715      3.6876    
  4.0208      4.4819      5.0805      5.8206      6.1832      7.1512      8.2224      9.3415      10.438      11.410    
  12.097      12.405      12.340      12.016      11.615      11.321      11.254      11.421      11.713      11.950    
  11.949      11.595      10.886      9.9305      8.8755      7.8068      6.7921      5.8833      5.1116      4.4891    
  4.0136      3.6756      3.4638      3.3691      3.3871      3.5186      3.7699      4.1517      4.6763      5.3533    
  5.6957      6.6204      7.6801      8.8264      9.9894      11.070      11.877      12.247      12.131      11.615    
  10.909      10.277      9.9519      10.052      10.534      11.208      11.807      12.084      11.892      11.232    
  10.241      9.1177      7.9802      6.9046      5.9475      5.1418      4.4985      4.0136      3.6754      3.4713    
  3.3916      3.4326      3.5966      3.8925      4.3330      4.9315      5.2431      6.1002      7.1198      8.2633    
  9.4663      10.639      11.590      12.085      11.987      11.321      10.277      9.1698      8.3483      8.0809    
  8.4607      9.3678      10.511      11.529      12.113      12.094      11.489      10.469      9.2837      8.0867    
  6.9619      5.9692      5.1418      4.4891      4.0047      3.6750      3.4862      3.4289      3.5002      3.7049    
  4.0540      4.5623      4.8358      5.6047      6.5566      7.6663      8.8798      10.116      11.219      11.906    
  11.945      11.254      9.9519      8.3483      6.8718      5.9466      5.8540      6.6322      8.0597      9.7303    
  11.190      12.077      12.219      11.657      10.608      9.3680      8.1226      6.9619      5.9475      5.1116    
  4.4612      3.9872      3.6745      3.5086      3.4805      3.5892      3.8418      4.2520      4.4831      5.1479    
  6.0079      7.0523      8.2425      9.5075      10.735      11.658      11.955      11.421      10.052      8.0810    
  5.9466      4.1863      3.2794      3.4898      4.7711      6.7799      8.9920      10.871      12.022      12.284    
  11.740      10.655      9.3680      8.0867      6.9046      5.8833      5.0524      4.4158      3.9620      3.6742    
  3.5379      3.5454      3.6978      4.0051      4.1914      4.7420      5.4911      6.4415      7.5722      8.8291    
  10.124      11.270      11.907      11.713      10.534      8.4607      5.8540      3.2794      1.3666     0.62046    
  1.2527      3.1059      5.7056      8.4179      10.645      11.984      12.304      11.740      10.608      9.2837    
  7.9802      6.7921      5.7789      4.9664      4.3547      3.9299      3.6742      3.5736      3.6222      3.8240    
  3.9645      4.3961      5.0223      5.8558      6.8926      8.0993      9.4064      10.698      11.680      11.950    
  11.208      9.3678      6.6322      3.4898     0.62046     -1.2830     -1.7277     -.58710      1.8530      4.9908    
  8.1045      10.564      11.984      12.284      11.657      10.469      9.1177      7.8068      6.6287      5.6385    
  4.8569      4.2801      3.8920      3.6745      3.6147      3.7091      3.8034      4.1155      4.6136      5.3156    
  6.2307      7.3462      8.6159      9.9554      11.195      11.949      11.807      10.511      8.0597      4.7711    
  1.2527     -1.7277     -3.4526     -3.4804     -1.7965      1.1805      4.7402      8.1045      10.645      12.022    
  12.219      11.489      10.241      8.8755      7.5729      6.4205      5.4672      4.7278      4.1946      3.8496    
  3.6750      3.6598      3.7074      3.9022      4.2725      4.8370      5.6124      6.6030      7.7865      9.1042    
  10.456      11.595      12.084      11.529      9.7303      6.7799      3.1059     -.58712     -3.4804     -4.8751    
 -4.4169     -2.2182      1.1805      4.9908      8.4179      10.871      12.077      12.094      11.232      9.9305    
  8.5652      7.2868      6.1753      5.2715      4.5840      4.1011      3.8038      3.6754      3.6755      3.7559    
  4.0025      4.4305      5.0589      5.9025      6.9595      8.1979      9.5473      10.886      11.892      12.113    
  11.190      8.9920      5.7055      1.8529     -1.7966     -4.4169     -5.3704     -4.4169     -1.7965      1.8530    
  5.7056      8.9920      11.190      12.113      11.892      10.886      9.5473      8.1979      6.9595      5.9025    
  5.0589      4.4304      4.0025      3.7559      3.7074      3.6754      3.8038      4.1011      4.5840      5.2716    
  6.1753      7.2868      8.5652      9.9304      11.232      12.094      12.077      10.871      8.4179      4.9907    
  1.1805     -2.2182     -4.4169     -4.8751     -3.4804     -.58710      3.1059      6.7799      9.7303      11.529    
  12.084      11.595      10.456      9.1042      7.7865      6.6030      5.6124      4.8369      4.2725      3.9022    
  3.8034      3.6598      3.6750      3.8496      4.1947      4.7279      5.4672      6.4205      7.5729      8.8754    
  10.241      11.489      12.219      12.022      10.645      8.1044      4.7401      1.1805     -1.7966     -3.4804    
 -3.4526     -1.7277      1.2527      4.7711      8.0597      10.511      11.807      11.949      11.195      9.9554    
  8.6159      7.3461      6.2306      5.3156      4.6135      4.1155      3.9645      3.7091      3.6147      3.6745    
  3.8921      4.2802      4.8569      5.6385      6.6287      7.8068      9.1176      10.469      11.657      12.284    
  11.984      10.564      8.1044      4.9907      1.8529     -.58712     -1.7277     -1.2830     0.62046      3.4898    
  6.6322      9.3678      11.208      11.950      11.680      10.698      9.4064      8.0993      6.8925      5.8558    
  5.0223      4.3961      4.1914      3.8240      3.6223      3.5736      3.6742      3.9299      4.3548      4.9664    
  5.7789      6.7921      7.9802      9.2836      10.608      11.740      12.304      11.984      10.645      8.4179    
  5.7055      3.1059      1.2527     0.62046      1.3666      3.2794      5.8540      8.4607      10.534      11.713    
  11.907      11.270      10.124      8.8290      7.5721      6.4415      5.4911      4.7420      4.4831      4.0051    
  3.6979      3.5454      3.5379      3.6742      3.9620      4.4158      5.0524      5.8833      6.9046      8.0867    
  9.3679      10.655      11.740      12.284      12.022      10.871      8.9920      6.7799      4.7711      3.4898    
  3.2794      4.1863      5.9466      8.0809      10.052      11.421      11.955      11.658      10.735      9.5075    
  8.2424      7.0523      6.0079      5.1479      4.8358      4.2520      3.8418      3.5892      3.4805      3.5086    
  3.6746      3.9873      4.4612      5.1116      5.9475      6.9618      8.1226      9.3679      10.608      11.657    
  12.219      12.077      11.190      9.7303      8.0597      6.6322      5.8540      5.9466      6.8718      8.3483    
  9.9519      11.254      11.945      11.906      11.219      10.116      8.8798      7.6663      6.5566      5.6047    
  5.2431      4.5623      4.0540      3.7049      3.5002      3.4289      3.4863      3.6750      4.0047      4.4891    
  5.1418      5.9692      6.9618      8.0867      9.2836      10.469      11.489      12.094      12.113      11.529    
  10.511      9.3678      8.4607      8.0810      8.3483      9.1698      10.277      11.321      11.987      12.084    
  11.590      10.639      9.4663      8.2633      7.1197      6.1002      5.6957      4.9315      4.3330      3.8925    
  3.5966      3.4326      3.3916      3.4713      3.6754      4.0136      4.4985      5.1418      5.9475      6.9046    
  7.9802      9.1176      10.241      11.232      11.892      12.084      11.807      11.208      10.534      10.052    
  9.9519      10.277      10.909      11.615      12.130      12.247      11.877      11.070      9.9894      8.8264    
  7.6801      6.6203      6.1832      5.3533      4.6763      4.1517      3.7699      3.5186      3.3871      3.3691    
  3.4638      3.6756      4.0136      4.4891      5.1116      5.8833      6.7921      7.8068      8.8754      9.9304    
  10.886      11.595      11.949      11.950      11.713      11.421      11.254      11.321      11.615      12.016    
  12.340      12.405      12.097      11.410      10.438      9.3415      8.2224      7.1512      6.6948      5.8206    
  5.0805      4.4819      4.0208      3.6876      3.4715      3.3642      3.3616      3.4638      3.6754      4.0047    
  4.4612      5.0524      5.7789      6.6287      7.5729      8.5652      9.5473      10.456      11.195      11.680    
  11.907      11.955      11.945      11.987      12.131      12.340      12.511      12.512      12.239      11.652    
  10.799      9.7946      8.7321      7.6794      7.2194      6.3257      5.5416      4.8824      4.3510      3.9419    
  3.6463      3.4557      3.3642      3.3691      3.4713      3.6750      3.9873      4.4158      4.9664      5.6385    
  6.4205      7.2868      8.1979      9.1042      9.9554      10.698      11.270      11.658      11.906      12.085    
  12.247      12.405      12.512      12.491      12.261      11.776      11.054      10.169      9.1937      8.1911    
  7.7442      6.8599      6.0549      5.3524      4.7625      4.2852      3.9155      3.6463      3.4715      3.3871    
  3.3916      3.4863      3.6746      3.9620      4.3548      4.8569      5.4672      6.1753      6.9595      7.7865    
  8.6159      9.4064      10.124      10.735      11.219      11.590      11.877      12.097      12.239      12.261    
  12.110      11.750      11.180      10.443      9.5884      8.6703      8.2531      7.4115      6.6137      5.8897    
  5.2570      4.7223      4.2852      3.9419      3.6876      3.5186      3.4326      3.4289      3.5086      3.6742    
  3.9299      4.2802      4.7279      5.2716      5.9025      6.6030      7.3462      8.0993      8.8291      9.5075    
  10.116      10.639      11.070      11.410      11.652      11.776      11.750      11.545      11.154      10.594    
  9.8938      9.0970      8.7249      7.9637      7.2066      6.4887      5.8342      5.2570      4.7625      4.3510    
  4.0208      3.7699      3.5966      3.5002      3.4805      3.5379      3.6742      3.8921      4.1947      4.5840    
  5.0589      5.6124      6.2307      6.8926      7.5722      8.2425      8.8798      9.4663      9.9894      10.438    
  10.799      11.054      11.180      11.154      10.961      10.600      10.086      9.4474      9.1337      8.4935    
  7.8157      7.1375      6.4887      5.8897      5.3524      4.8824      4.4819      4.1517      3.8925      3.7049    
  3.5892      3.5454      3.5736      3.6745      3.8496      4.1011      4.4305      4.8370      5.3156      5.8558    
  6.4415      7.0523      7.6663      8.2633      8.8264      9.3415      9.7946      10.169      10.443      10.594    
  10.600      10.451      10.145      9.6964      9.4519      8.9721      8.4150      7.8157      7.2066      6.6137    
  6.0549      5.5416      5.0805      4.6763      4.3330      4.0540      3.8418      3.6979      3.6223      3.6147    
  3.6750      3.8038      4.0025      4.2725      4.6136      5.0223      5.4911      6.0079      6.5566      7.1198    
  7.6801      8.2224      8.7321      9.1937      9.5884      9.8938      10.086      10.145      10.057      9.8217    
  9.6545      9.3686      8.9721      8.4935      7.9637      7.4115      6.8599      6.3257      5.8206      5.3533    
  4.9315      4.5623      4.2520      4.0051      3.8240      3.7091      3.6598      3.6754      3.7559      3.9022    
  4.1155      4.3961      4.7420      5.1479      5.6047      6.1002      6.6204      7.1512      7.6794      8.1911    
  8.6703      9.0970      9.4474      9.6964      9.8217      9.8087      9.6545      9.5447      9.3150      8.9830    
  8.5730      8.1117      7.6238      7.1290      6.6419      6.1732      5.7317      5.3257      4.9638      4.6538    
  4.4016      4.2108      4.0826      4.0171      4.0136      4.0719      4.1926      4.3764      4.6230      4.9304    
  5.2932      5.7030      6.1489      6.6186      7.1004      7.5831      8.0550      8.5021      8.9062      9.2453    
  9.4959      9.6370      9.5447      9.6545      9.6369      9.4959      9.2453      8.9062      8.5021      8.0550    
  7.5831      7.1004      6.6186      6.1489      5.7030      5.2932      4.9304      4.6230      4.3764      4.1926    
  4.0719      4.0136      4.0171      4.0826      4.2108      4.4016      4.6538      4.9638      5.3257      5.7317    
  6.1732      6.6419      7.1290      7.6238      8.1117      8.5730      8.9830      9.3150      9.2988      9.6203    
  9.8217      9.8918      9.8314      9.6518      9.3716      9.0118      8.5924      8.1302      7.6389      7.1310    
  6.6203      6.1219      5.6519      5.2250      4.8526      4.5421      4.2971      4.1181      4.0047      3.9557    
  3.9710      4.0506      4.1948      4.4026      4.6719      4.9989      5.3789      5.8067      6.2769      6.7831    
  7.3151      7.8574      8.3879      8.8785      8.9362      9.4471      9.8583      10.145      10.293      10.301    
  10.179      9.9442      9.6163      9.2133      8.7501      8.2398      7.6954      7.1327      6.5707      6.0297    
  5.5286      5.0828      4.7023      4.3923      4.1542      3.9872      3.8899      3.8611      3.9005      4.0078    
  4.1825      4.4236      4.7293      5.0978      5.5272      6.0147      6.5554      7.1391      7.7486      8.3584    
  8.4839      9.1510      9.7491      10.242      10.600      10.811      10.871      10.792      10.591      10.284    
  9.8894      9.4184      8.8821      8.2935      7.6704      7.0355      6.4144      5.8311      5.3056      4.8512    
  4.4750      4.1789      3.9620      3.8218      3.7563      3.7641      3.8446      3.9976      4.2229      4.5212    
  4.8933      5.3400      5.8608      6.4513      7.1005      7.7880      7.9720      8.7563      9.5085      10.183    
  10.741      11.154      11.406      11.499      11.445      11.266      10.977      10.589      10.108      9.5422    
  8.9048      8.2150      7.5004      6.7924      6.1214      5.5126      4.9831      4.5420      4.1915      3.9299    
  3.7537      3.6594      3.6447      3.7084      3.8507      4.0728      4.3774      4.7679      5.2477      5.8174    
  6.4723      7.1988      7.4285      8.2903      9.1586      9.9839      10.717      11.317      11.750      12.000    
  12.084      12.031      11.873      11.619      11.262      10.788      10.196      9.5075      8.7474      7.9484    
  7.1494      6.3881      5.6957      5.0930      4.5908      4.1915      3.8921      3.6875      3.5728      3.5445    
  3.6012      3.7437      3.9748      4.2992      4.7230      5.2509      5.8843      6.6161      6.8767      7.7789    
  8.7254      9.6652      10.543      11.304      11.888      12.261      12.437      12.467      12.407      12.290    
  12.110      11.831      11.408      10.817      10.080      9.2475      8.3623      7.4714      6.6207      5.8475    
  5.1765      4.6198      4.1789      3.8496      3.6249      3.4982      3.4652      3.5245      3.6778      3.9296    
  4.2871      4.7582      5.3487      6.0585      6.3345      7.2442      8.2334      9.2526      10.242      11.136    
  11.844      12.300      12.512      12.547      12.497      12.442      12.410      12.367      12.232      11.915    
  11.367      10.601      9.6968      8.7260      7.7455      6.8097      5.9620      5.2305      4.6276      4.1542    
  3.8038      3.5675      3.4373      3.4083      3.4794      3.6537      3.9378      4.3409      4.8726      5.5382    
  5.8149      6.7037      7.7039      8.7699      9.8406      10.843      11.658      12.179      12.383      12.340    
  12.182      12.050      12.042      12.167      12.341      12.425      12.277      11.814      11.048      10.078    
  9.0255      7.9609      6.9476      6.0347      5.2527      4.6142      4.1181      3.7559      3.5167      3.3914    
  3.3748      3.4667      3.6718      3.9991      4.4598      5.0639      5.3286      6.1719      7.1544      8.2373    
  9.3614      10.452      11.373      11.966      12.156      11.988      11.615      11.244      11.063      11.173    
  11.544      12.026      12.406      12.483      12.144      11.400      10.379      9.2497      8.1094      7.0291    
  6.0629      5.2426      4.5800      4.0719      3.7074      3.4739      3.3615      3.3654      3.4867      3.7321    
  4.1130      4.6420      4.8851      5.6615      6.5999      7.6713      8.8221      9.9781      11.011      11.711    
  11.930      11.655      11.022      10.277      9.7088      9.5435      9.8661      10.585      11.464      12.203    
  12.546      12.355      11.650      10.588      9.3908      8.1859      7.0517      6.0458      5.2007      4.5263    
  4.0171      3.6598      3.4404      3.3488      3.3809      3.5397      3.8344      4.2784      4.4932      5.1849    
  6.0552      7.0869      8.2367      9.4344      10.573      11.423      11.755      11.463      10.617      9.4610    
  8.3483      7.6408      7.5860      8.2286      9.3913      10.735      11.875      12.500      12.460      11.794    
  10.701      9.4451      8.1884      7.0149      5.9845      5.1288      4.4553      3.9557      3.6147      3.4174    
  3.3538      3.4214      3.6254      3.9776      4.1598      4.7538      5.5354      6.5001      7.6186      8.8310    
  10.048      11.074      11.610      11.444      10.536      9.0588      7.3753      5.9467      5.1948      5.3630    
  6.4284      8.1078      9.9531      11.496      12.387      12.478      11.840      10.715      9.4120      8.1177    
  6.9209      5.8817      5.0298      4.3696      3.8899      3.5736      3.4056      3.3768      3.4866      3.7428    
  3.8900      4.3779      5.0551      5.9285      6.9843      8.1786      9.4345      10.617      11.422      11.532    
  10.774      9.1936      7.0819      4.9251      3.2795      2.6040      3.1076      4.6748      6.9035      9.2390    
  11.145      12.252      12.430      11.794      10.632      9.2941      7.9774      6.7737      5.7416      4.9076    
  4.2723      3.8218      3.5379      3.4056      3.4174      3.5753      3.6859      4.0640      4.6271      5.3901    
  6.3540      7.4937      8.7497      10.026      11.096      11.588      11.194      9.8001      7.5536      4.8692    
  2.3484     0.62050     0.15000      1.0812      3.1866      5.9439      8.7055      10.890      12.130      12.332    
  11.662      10.459      9.0968      7.7733      6.5791      5.5697      4.7667      4.1668      3.7537      3.5086    
  3.4174      3.4748      3.5476      3.8156      4.2607      4.9014      5.7498      6.7995      8.0127      9.3146    
  10.573      11.460      11.576      10.647      8.6351      5.7954      2.6616     -.69577E-01 -1.7277     -1.8777    
 -.46646      2.1582      5.3640      8.4352      10.774      12.039      12.191      11.451      10.201      8.8276    
  7.5132      6.3447      5.3724      4.6121      4.0565      3.6875      3.4863      3.4404      3.4739      3.6335    
  3.9611      4.4748      5.1930      6.1236      7.2511      8.5252      9.8565      11.050      11.704      11.424    
  9.9850      7.4340      4.1352     0.72359     -2.0394     -3.4804     -3.2277     -1.3372      1.7266      5.2449    
  8.4658      10.807      11.978      12.003      11.160      9.8661      8.4961      7.2066      6.0791      5.1566    
  4.4489      3.9448      3.6249      3.4713      3.4638      3.5167      3.7302      4.1183      4.7003      5.4931    
  6.4994      7.6943      9.0150      10.356      11.445      11.848      11.195      9.3235      6.3688      2.7916    
 -.69855     -3.3137     -4.4169     -3.7279     -1.4177      1.9490      5.5993      8.7832      10.966      11.926    
  11.759      10.794      9.4667      8.1140      6.8647      5.7919      4.9301      4.2826      3.8350      3.5675    
  3.5167      3.4638      3.5675      3.8350      4.2826      4.9301      5.7919      6.8646      8.1140      9.4666    
  10.794      11.759      11.926      10.966      8.7832      5.5993      1.9490     -1.4177     -3.7279     -4.4169    
 -3.3137     -.69856      2.7915      6.3688      9.3235      11.195      11.848      11.445      10.356      9.0150    
  7.6943      6.4994      5.4931      4.7003      4.1183      3.7302      3.6335      3.4739      3.4713      3.6249    
  3.9448      4.4489      5.1566      6.0791      7.2066      8.4961      9.8660      11.160      12.003      11.978    
  10.807      8.4658      5.2449      1.7266     -1.3373     -3.2278     -3.4804     -2.0394     0.72357      4.1352    
  7.4340      9.9850      11.424      11.704      11.050      9.8565      8.5252      7.2511      6.1236      5.1930    
  4.4748      3.9611      3.8156      3.5475      3.4404      3.4863      3.6875      4.0565      4.6121      5.3723    
  6.3447      7.5132      8.8275      10.201      11.450      12.191      12.039      10.774      8.4352      5.3640    
  2.1581     -.46650     -1.8778     -1.7277     -.69628E-01  2.6616      5.7954      8.6351      10.647      11.576    
  11.460      10.573      9.3146      8.0127      6.7994      5.7498      4.9014      4.2606      4.0639      3.6858    
  3.4748      3.4174      3.5086      3.7537      4.1668      4.7667      5.5697      6.5791      7.7733      9.0967    
  10.459      11.662      12.332      12.130      10.890      8.7055      5.9439      3.1866      1.0811     0.14995    
 0.62043      2.3484      4.8692      7.5536      9.8001      11.194      11.588      11.096      10.026      8.7497    
  7.4937      6.3539      5.3901      4.6271      4.3778      3.8900      3.5753      3.4174      3.4056      3.5380    
  3.8219      4.2723      4.9076      5.7416      6.7736      7.9774      9.2941      10.632      11.794      12.430    
  12.252      11.145      9.2390      6.9035      4.6747      3.1076      2.6039      3.2794      4.9250      7.0819    
  9.1936      10.774      11.532      11.422      10.617      9.4345      8.1786      6.9843      5.9285      5.0551    
  4.7537      4.1598      3.7428      3.4866      3.3768      3.4056      3.5737      3.8899      4.3696      5.0298    
  5.8817      6.9209      8.1177      9.4120      10.715      11.840      12.478      12.387      11.496      9.9531    
  8.1078      6.4284      5.3630      5.1948      5.9466      7.3753      9.0588      10.536      11.444      11.610    
  11.074      10.048      8.8310      7.6186      6.5001      5.5354      5.1849      4.4931      3.9776      3.6254    
  3.4214      3.3538      3.4174      3.6147      3.9557      4.4553      5.1288      5.9845      7.0149      8.1884    
  9.4451      10.701      11.794      12.460      12.500      11.875      10.735      9.3913      8.2286      7.5860    
  7.6407      8.3482      9.4609      10.617      11.463      11.755      11.423      10.573      9.4344      8.2366    
  7.0869      6.0552      5.6615      4.8851      4.2784      3.8344      3.5397      3.3810      3.3489      3.4405    
  3.6598      4.0171      4.5264      5.2007      6.0458      7.0517      8.1859      9.3909      10.588      11.650    
  12.355      12.546      12.203      11.464      10.585      9.8661      9.5434      9.7087      10.277      11.021    
  11.655      11.930      11.711      11.011      9.9781      8.8221      7.6713      6.5999      6.1719      5.3286    
  4.6420      4.1130      3.7321      3.4867      3.3655      3.3616      3.4740      3.7074      4.0719      4.5800    
  5.2426      6.0629      7.0292      8.1094      9.2497      10.379      11.400      12.144      12.483      12.406    
  12.026      11.544      11.173      11.063      11.244      11.615      11.988      12.156      11.966      11.373    
  10.452      9.3614      8.2373      7.1544      6.7037      5.8148      5.0638      4.4597      3.9990      3.6718    
  3.4667      3.3748      3.3914      3.5167      3.7559      4.1182      4.6142      5.2527      6.0347      6.9476    
  7.9609      9.0256      10.078      11.048      11.814      12.277      12.425      12.341      12.167      12.042    
  12.050      12.182      12.340      12.383      12.179      11.658      10.843      9.8406      8.7699      7.7039    
  7.2442      6.3345      5.5382      4.8725      4.3409      3.9377      3.6537      3.4794      3.4083      3.4373    
  3.5675      3.8038      4.1542      4.6276      5.2305      5.9620      6.8097      7.7455      8.7261      9.6968    
  10.601      11.367      11.915      12.232      12.367      12.410      12.442      12.497      12.547      12.512    
  12.300      11.844      11.136      10.242      9.2526      8.2334      7.7789      6.8767      6.0584      5.3487    
  4.7582      4.2871      3.9296      3.6778      3.5245      3.4652      3.4982      3.6249      3.8496      4.1789    
  4.6198      5.1765      5.8475      6.6207      7.4714      8.3624      9.2476      10.080      10.817      11.408    
  11.831      12.110      12.290      12.407      12.467      12.437      12.261      11.888      11.304      10.543    
  9.6652      8.7254      8.2903      7.4285      6.6161      5.8843      5.2509      4.7229      4.2992      3.9748    
  3.7437      3.6012      3.5445      3.5727      3.6875      3.8921      4.1915      4.5908      5.0930      5.6957    
  6.3882      7.1494      7.9484      8.7474      9.5075      10.196      10.788      11.262      11.619      11.873    
  12.031      12.084      12.000      11.750      11.317      10.717      9.9839      9.1586      8.7563      7.9720    