unknown system                          
   1.00000000000000     
    -2.428396    2.428396    1.337484
     2.428396   -2.428396    1.337484
     2.428396    2.428396   -1.337484
   Si
     2
Direct
  0.750000  0.250000  0.500000
  0.500000  0.500000  0.000000
 
   36   36   36
 0.97241536277E+01 0.96545153816E+01 0.94518788903E+01 0.91336928849E+01 0.87249075309E+01
 0.82531415831E+01 0.77442082951E+01 0.72193524028E+01 0.66948071963E+01 0.61832237608E+01
 0.56957011504E+01 0.52430715821E+01 0.48358284305E+01 0.44830768624E+01 0.41914208248E+01
 0.39644994178E+01 0.38033513793E+01 0.37073787951E+01 0.36755455775E+01 0.37073780651E+01
 0.38033515021E+01 0.39645023451E+01 0.41914262445E+01 0.44830813041E+01 0.48358294936E+01
 0.52430722855E+01 0.56957061838E+01 0.61832323636E+01 0.66948138717E+01 0.72193539353E+01
 0.77442062815E+01 0.82531388675E+01 0.87249059246E+01 0.91336940790E+01 0.94518833279E+01
 0.96545198169E+01 0.96545198169E+01 0.98087475982E+01 0.98216667106E+01 0.96963840944E+01
 0.94474101503E+01 0.90969796197E+01 0.86702648951E+01 0.81910709576E+01 0.76793734272E+01
 0.71512144597E+01 0.66203436062E+01 0.61001832572E+01 0.56047360571E+01 0.51479366975E+01
 0.47420383666E+01 0.43961270025E+01 0.41155276682E+01 0.39022139956E+01 0.37558972799E+01
 0.36753839139E+01 0.36597742564E+01 0.37090671718E+01 0.38239792203E+01 0.40051332113E+01
 0.42520406495E+01 0.45623243888E+01 0.49314835872E+01 0.53532985971E+01 0.58206000555E+01
 0.63257214992E+01 0.68598985851E+01 0.74114750991E+01 0.79636984929E+01 0.84934584019E+01
 0.89721067332E+01 0.93686395925E+01 0.94518833279E+01 0.98216698372E+01 0.10056825907E+02
 0.10144707186E+02 0.10086106398E+02 0.98937506429E+01 0.95883720826E+01 0.91936959946E+01
 0.87320994200E+01 0.82223881161E+01 0.76801336848E+01 0.71197465069E+01 0.65566249690E+01
 0.60078673745E+01 0.54911067696E+01 0.50222648115E+01 0.46135415041E+01 0.42725241818E+01
 0.40025284426E+01 0.38037823212E+01 0.36749708929E+01 0.36146784996E+01 0.36222490314E+01
 0.36978378506E+01 0.38418178838E+01 0.40539831413E+01 0.43329958570E+01 0.46763046386E+01
 0.50804812682E+01 0.55415848994E+01 0.60549200205E+01 0.66136798585E+01 0.72066142207E+01
 0.78156728332E+01 0.84149737481E+01 0.89721067332E+01 0.91336940790E+01 0.96963863730E+01
 0.10144708451E+02 0.10450908425E+02 0.10600493448E+02 0.10593530707E+02 0.10442693490E+02
 0.10168683979E+02 0.97946326134E+01 0.93415410283E+01 0.88263937446E+01 0.82632734001E+01
 0.76662975502E+01 0.70523024731E+01 0.64415127404E+01 0.58557938569E+01 0.53155545788E+01
 0.48369437040E+01 0.44304484905E+01 0.41010647253E+01 0.38496008273E+01 0.36745016815E+01
 0.35736183086E+01 0.35453874863E+01 0.35891618420E+01 0.37048724161E+01 0.38924863297E+01
 0.41516851391E+01 0.44818928198E+01 0.48824492078E+01 0.53524507784E+01 0.58897216621E+01
 0.64886738999E+01 0.71374821582E+01 0.78156728332E+01 0.84934584019E+01 0.87249059246E+01
 0.94474099297E+01 0.10086106715E+02 0.10600493157E+02 0.10961073740E+02 0.11153567915E+02
 0.11179714552E+02 0.11054152779E+02 0.10799347473E+02 0.10438363121E+02 0.99894446438E+01
 0.94662790033E+01 0.88797595651E+01 0.82424425184E+01 0.75721411284E+01 0.68925472533E+01
 0.62306494337E+01 0.56124192256E+01 0.50588810551E+01 0.45839961148E+01 0.41946241130E+01
 0.38920436761E+01 0.36741991664E+01 0.35379150765E+01 0.34804643682E+01 0.35002246279E+01
 0.35966292679E+01 0.37698850324E+01 0.40208384029E+01 0.43510119868E+01 0.47624704464E+01
 0.52570004624E+01 0.58342201548E+01 0.64886738999E+01 0.72066142207E+01 0.79636984929E+01
 0.82531388675E+01 0.90969778341E+01 0.98937502040E+01 0.10593530098E+02 0.11153566755E+02
 0.11544560135E+02 0.11749933341E+02 0.11776430815E+02 0.11652273720E+02 0.11409550711E+02
 0.11069576059E+02 0.10638568807E+02 0.10115596274E+02 0.95074733214E+01 0.88290460315E+01
 0.80992789924E+01 0.73461460723E+01 0.66029845715E+01 0.59025299006E+01 0.52715413224E+01
 0.47278425538E+01 0.42801344553E+01 0.39298909520E+01 0.36742062713E+01 0.35085740954E+01
 0.34289070722E+01 0.34325541488E+01 0.35185512567E+01 0.36875670170E+01 0.39418692859E+01
 0.42852265397E+01 0.47222958589E+01 0.52570004624E+01 0.58897216621E+01 0.66136798585E+01
 0.74114750991E+01 0.77442062815E+01 0.86702625081E+01 0.95883715593E+01 0.10442694069E+02
 0.11179713976E+02 0.11749931946E+02 0.12110411875E+02 0.12260854829E+02 0.12239056501E+02
 0.12097493803E+02 0.11877083752E+02 0.11589844296E+02 0.11218728132E+02 0.10734922459E+02
 0.10124091732E+02 0.94064245632E+01 0.86158908163E+01 0.77865263472E+01 0.69594504004E+01
 0.61752910309E+01 0.54671661072E+01 0.48568768213E+01 0.43547232077E+01 0.39619810013E+01
 0.36745199974E+01 0.34862471870E+01 0.33916254741E+01 0.33870653584E+01 0.34714538994E+01
 0.36462594558E+01 0.39154775514E+01 0.42852265397E+01 0.47624704464E+01 0.53524507784E+01
 0.60549200205E+01 0.68598985851E+01 0.72193539353E+01 0.81910694807E+01 0.91936949139E+01
 0.10168685542E+02 0.11054154901E+02 0.11776430860E+02 0.12260853837E+02 0.12491390474E+02
 0.12512479701E+02 0.12404613658E+02 0.12247368397E+02 0.12084498668E+02 0.11906273870E+02
 0.11657705822E+02 0.11269593835E+02 0.10698252234E+02 0.99554199147E+01 0.91041707882E+01
 0.81978642475E+01 0.72868358570E+01 0.64204562828E+01 0.56384574799E+01 0.49664172278E+01
 0.44157986844E+01 0.39872239150E+01 0.36749952702E+01 0.34712733832E+01 0.33691154194E+01
 0.33642285473E+01 0.34557188187E+01 0.36462594558E+01 0.39418692859E+01 0.43510119868E+01
 0.48824492078E+01 0.55415848994E+01 0.63257214992E+01 0.66948138717E+01 0.76793756904E+01
 0.87320985999E+01 0.97946332551E+01 0.10799351245E+02 0.11652277394E+02 0.12239057715E+02
 0.12512479976E+02 0.12510739381E+02 0.12339667707E+02 0.12130498400E+02 0.11987414178E+02
 0.11945090688E+02 0.11954858569E+02 0.11906935316E+02 0.11679810655E+02 0.11195334783E+02
 0.10455958865E+02 0.95473292174E+01 0.85652392742E+01 0.75728593515E+01 0.66287069631E+01
 0.57789452453E+01 0.50524137097E+01 0.44611552352E+01 0.40046652894E+01 0.36754123235E+01
 0.34637752866E+01 0.33615935808E+01 0.33642285473E+01 0.34714538994E+01 0.36875670170E+01
 0.40208384029E+01 0.44818928198E+01 0.50804812682E+01 0.58206000555E+01 0.61832323636E+01
 0.71512211215E+01 0.82223903808E+01 0.93415409768E+01 0.10438365936E+02 0.11409556729E+02
 0.12097499080E+02 0.12404616944E+02 0.12339670365E+02 0.12016256579E+02 0.11615289947E+02
 0.11321375804E+02 0.11254059929E+02 0.11420866279E+02 0.11713448356E+02 0.11950344009E+02
 0.11948670114E+02 0.11594758547E+02 0.10886116353E+02 0.99304516182E+01 0.88754602175E+01
 0.78068429760E+01 0.67921336667E+01 0.58832929526E+01 0.51116350282E+01 0.44890915238E+01
 0.40135828983E+01 0.36755769189E+01 0.34637752866E+01 0.33691154194E+01 0.33870653584E+01
 0.35185512567E+01 0.37698850324E+01 0.41516851391E+01 0.46763046386E+01 0.53532985971E+01
 0.56957061838E+01 0.66203503134E+01 0.76801397051E+01 0.88263958289E+01 0.99894462445E+01
 0.11069581947E+02 0.11877092176E+02 0.12247375533E+02 0.12130504921E+02 0.11615296050E+02
 0.10909360894E+02 0.10277117150E+02 0.99518707000E+01 0.10051751035E+02 0.10533806575E+02
 0.11208076301E+02 0.11807375727E+02 0.12083544064E+02 0.11891588207E+02 0.11232100145E+02
 0.10241076985E+02 0.91176639808E+01 0.79801996063E+01 0.69045815507E+01 0.59475323655E+01
 0.51418256926E+01 0.44985273988E+01 0.40135828983E+01 0.36754123235E+01 0.34712733832E+01
 0.33916254741E+01 0.34325541488E+01 0.35966292679E+01 0.38924863297E+01 0.43329958570E+01
 0.49314835872E+01 0.52430722855E+01 0.61001851180E+01 0.71197525292E+01 0.82632789913E+01
 0.94662816748E+01 0.10638573663E+02 0.11589854244E+02 0.12084509444E+02 0.11987423359E+02
 0.11321386363E+02 0.10277127084E+02 0.91698404020E+01 0.83482520128E+01 0.80809353221E+01
 0.84606683750E+01 0.93677891068E+01 0.10511032647E+02 0.11529422820E+02 0.12112625427E+02
 0.12094143322E+02 0.11488775548E+02 0.10469129133E+02 0.92836515387E+01 0.80867088376E+01
 0.69618628120E+01 0.59692204645E+01 0.51418256926E+01 0.44890915238E+01 0.40046652894E+01
 0.36749952702E+01 0.34862471870E+01 0.34289070722E+01 0.35002246279E+01 0.37048724161E+01
 0.40539831413E+01 0.45623243888E+01 0.48358294936E+01 0.56047342047E+01 0.65566272834E+01
 0.76663045854E+01 0.88797651297E+01 0.10115600645E+02 0.11218737671E+02 0.11906288105E+02
 0.11945103142E+02 0.11254070866E+02 0.99518849373E+01 0.83482647992E+01 0.68718183827E+01
 0.59466230700E+01 0.58539624633E+01 0.66322051651E+01 0.80596647502E+01 0.97303362224E+01
 0.11190071440E+02 0.12077330356E+02 0.12218965452E+02 0.11656915482E+02 0.10608020561E+02
 0.93679912788E+01 0.81226274925E+01 0.69618628120E+01 0.59475323655E+01 0.51116350282E+01
 0.44611552352E+01 0.39872239150E+01 0.36745199974E+01 0.35085740954E+01 0.34804643682E+01
 0.35891618420E+01 0.38418178838E+01 0.42520406495E+01 0.44830813041E+01 0.51479373784E+01
 0.60078672120E+01 0.70523084104E+01 0.82424511235E+01 0.95074787334E+01 0.10734929229E+02
 0.11657720347E+02 0.11954875903E+02 0.11420878978E+02 0.10051762606E+02 0.80809511240E+01
 0.59466360131E+01 0.41862809114E+01 0.32794266805E+01 0.34898119046E+01 0.47710873227E+01
 0.67798895471E+01 0.89919673048E+01 0.10870841150E+02 0.12022144366E+02 0.12284416763E+02
 0.11739726146E+02 0.10654613430E+02 0.93679912788E+01 0.80867088376E+01 0.69045815507E+01
 0.58832929526E+01 0.50524137097E+01 0.44157986844E+01 0.39619810013E+01 0.36742062713E+01
 0.35379150765E+01 0.35453874863E+01 0.36978378506E+01 0.40051332113E+01 0.41914262445E+01
 0.47420453308E+01 0.54911090899E+01 0.64415171426E+01 0.75721515234E+01 0.88290549501E+01
 0.10124096100E+02 0.11269602781E+02 0.11906953363E+02 0.11713466174E+02 0.10533817492E+02
 0.84606784929E+01 0.58539758558E+01 0.32794357212E+01 0.13666387878E+01 0.62046358679E+00
 0.12527078459E+01 0.31058980485E+01 0.57055559523E+01 0.84179451172E+01 0.10645173122E+02
 0.11984087219E+02 0.12304499238E+02 0.11739726146E+02 0.10608020561E+02 0.92836515387E+01
 0.79801996063E+01 0.67921336667E+01 0.57789452453E+01 0.49664172278E+01 0.43547232077E+01
 0.39298909520E+01 0.36741991664E+01 0.35736183086E+01 0.36222490314E+01 0.38239792203E+01
 0.39645023451E+01 0.43961379041E+01 0.50222731187E+01 0.58557986797E+01 0.68925570702E+01
 0.80992921744E+01 0.94064312048E+01 0.10698254189E+02 0.11679820363E+02 0.11950362305E+02
 0.11208091052E+02 0.93677959325E+01 0.66322108586E+01 0.34898177035E+01 0.62046440380E+00
 -.12830092429E+01 -.17277094597E+01 -.58709659200E+00 0.18529500692E+01 0.49907660146E+01
 0.81044714745E+01 0.10563902056E+02 0.11984087219E+02 0.12284416763E+02 0.11656915482E+02
 0.10469129133E+02 0.91176639808E+01 0.78068429760E+01 0.66287069631E+01 0.56384574799E+01
 0.48568768213E+01 0.42801344553E+01 0.38920436761E+01 0.36745016815E+01 0.36146784996E+01
 0.37090671718E+01 0.38033515021E+01 0.41155371716E+01 0.46135549419E+01 0.53155629233E+01
 0.62306571789E+01 0.73461599201E+01 0.86159030552E+01 0.99554212540E+01 0.11195333103E+02
 0.11948678254E+02 0.11807389882E+02 0.10511040473E+02 0.80596650589E+01 0.47710851324E+01
 0.12527012632E+01 -.17277197819E+01 -.34525564602E+01 -.34803979156E+01 -.17965409729E+01
 0.11805204891E+01 0.47401605602E+01 0.81044714745E+01 0.10645173122E+02 0.12022144366E+02
 0.12218965452E+02 0.11488775548E+02 0.10241076985E+02 0.88754602175E+01 0.75728593515E+01
 0.64204562828E+01 0.54671661072E+01 0.47278425538E+01 0.41946241130E+01 0.38496008273E+01
 0.36749708929E+01 0.36597742564E+01 0.37073780651E+01 0.39022181963E+01 0.42725382737E+01
 0.48369581723E+01 0.56124278824E+01 0.66029947227E+01 0.77865403917E+01 0.91041771347E+01
 0.10455952791E+02 0.11594752862E+02 0.12083548127E+02 0.11529428256E+02 0.97303335523E+01
 0.67798809934E+01 0.31058852034E+01 -.58711764940E+00 -.34804191325E+01 -.48750525941E+01
 -.44168955125E+01 -.22182087321E+01 0.11805204891E+01 0.49907660146E+01 0.84179451172E+01
 0.10870841150E+02 0.12077330356E+02 0.12094143322E+02 0.11232100145E+02 0.99304516182E+01
 0.85652392742E+01 0.72868358570E+01 0.61752910309E+01 0.52715413224E+01 0.45839961148E+01
 0.41010647253E+01 0.38037823212E+01 0.36753839139E+01 0.36755455775E+01 0.37558961623E+01
 0.40025374691E+01 0.44304673167E+01 0.50588966253E+01 0.59025387120E+01 0.69594600387E+01
 0.81978726467E+01 0.95473255595E+01 0.10886103027E+02 0.11891579364E+02 0.12112623180E+02
 0.11190064410E+02 0.89919517300E+01 0.57055373312E+01 0.18529263890E+01 -.17965739341E+01
 -.44169235208E+01 -.53703945594E+01 -.44168955125E+01 -.17965409729E+01 0.18529500692E+01
 0.57055559523E+01 0.89919673048E+01 0.11190071440E+02 0.12112625427E+02 0.11891588207E+02
 0.10886116353E+02 0.95473292174E+01 0.81978642475E+01 0.69594504004E+01 0.59025299006E+01
 0.50588810551E+01 0.44304484905E+01 0.40025284426E+01 0.37558972799E+01 0.37073787951E+01
 0.36753817441E+01 0.38037847757E+01 0.41010819392E+01 0.45840198873E+01 0.52715565682E+01
 0.61752973147E+01 0.72868396390E+01 0.85652364902E+01 0.99304366731E+01 0.11232082130E+02
 0.12094132667E+02 0.12077320237E+02 0.10870820154E+02 0.84179170416E+01 0.49907389623E+01
 0.11804898145E+01 -.22182463333E+01 -.44169235208E+01 -.48750525941E+01 -.34803979156E+01
 -.58709659200E+00 0.31058980485E+01 0.67798895471E+01 0.97303362224E+01 0.11529422820E+02
 0.12083544064E+02 0.11594758547E+02 0.10455958865E+02 0.91041707882E+01 0.77865263472E+01
 0.66029845715E+01 0.56124192256E+01 0.48369437040E+01 0.42725241818E+01 0.39022139956E+01
 0.38033513793E+01 0.36597761709E+01 0.36749726444E+01 0.38496134178E+01 0.41946508582E+01
 0.47278681640E+01 0.54671771497E+01 0.64204557461E+01 0.75728524565E+01 0.88754436345E+01
 0.10241052595E+02 0.11488756041E+02 0.12218953858E+02 0.12022126399E+02 0.10645140691E+02
 0.81044354673E+01 0.47401301700E+01 0.11804898145E+01 -.17965739341E+01 -.34804191325E+01
 -.34525564602E+01 -.17277094597E+01 0.12527078459E+01 0.47710873227E+01 0.80596647502E+01
 0.10511032647E+02 0.11807375727E+02 0.11948670114E+02 0.11195334783E+02 0.99554199147E+01
 0.86158908163E+01 0.73461460723E+01 0.62306494337E+01 0.53155545788E+01 0.46135415041E+01
 0.41155276682E+01 0.39644994178E+01 0.37090736686E+01 0.36146870762E+01 0.36745138482E+01
 0.38920680745E+01 0.42801661631E+01 0.48568978259E+01 0.56384597420E+01 0.66286967045E+01
 0.78068236752E+01 0.91176347175E+01 0.10469098554E+02 0.11656896443E+02 0.12284404503E+02
 0.11984064166E+02 0.10563865147E+02 0.81044354673E+01 0.49907389623E+01 0.18529263890E+01
 -.58711764940E+00 -.17277197819E+01 -.12830092429E+01 0.62046358679E+00 0.34898119046E+01
 0.66322051651E+01 0.93677891068E+01 0.11208076301E+02 0.11950344009E+02 0.11679810655E+02
 0.10698252234E+02 0.94064245632E+01 0.80992789924E+01 0.68925472533E+01 0.58557938569E+01
 0.50222648115E+01 0.43961270025E+01 0.41914208248E+01 0.38239851648E+01 0.36222643479E+01
 0.35736361045E+01 0.36742222313E+01 0.39299225356E+01 0.43547519393E+01 0.49664277190E+01
 0.57789367327E+01 0.67921137195E+01 0.79801695542E+01 0.92836130975E+01 0.10607986791E+02
 0.11739707810E+02 0.12304486680E+02 0.11984064166E+02 0.10645140691E+02 0.84179170416E+01
 0.57055373312E+01 0.31058852034E+01 0.12527012632E+01 0.62046440380E+00 0.13666387878E+01
 0.32794266805E+01 0.58539624633E+01 0.84606683750E+01 0.10533806575E+02 0.11713448356E+02
 0.11906935316E+02 0.11269593835E+02 0.10124091732E+02 0.88290460315E+01 0.75721411284E+01
 0.64415127404E+01 0.54911067696E+01 0.47420383666E+01 0.44830768624E+01 0.40051343202E+01
 0.36978518879E+01 0.35454096870E+01 0.35379400300E+01 0.36742361684E+01 0.39620129301E+01
 0.44158185682E+01 0.50524120968E+01 0.58832751936E+01 0.69045543920E+01 0.80866717403E+01
 0.93679481068E+01 0.10654578707E+02 0.11739707810E+02 0.12284404503E+02 0.12022126399E+02
 0.10870820154E+02 0.89919517300E+01 0.67798809934E+01 0.47710851324E+01 0.34898177035E+01
 0.32794357212E+01 0.41862809114E+01 0.59466230700E+01 0.80809353221E+01 0.10051751035E+02
 0.11420866279E+02 0.11954858569E+02 0.11657705822E+02 0.10734922459E+02 0.95074733214E+01
 0.82424425184E+01 0.70523024731E+01 0.60078673745E+01 0.51479366975E+01 0.48358284305E+01
 0.42520377895E+01 0.38418234496E+01 0.35891797412E+01 0.34804890192E+01 0.35086024689E+01
 0.36745522301E+01 0.39872518395E+01 0.44611651283E+01 0.51116238776E+01 0.59475088869E+01
 0.69618319645E+01 0.81225879588E+01 0.93679481068E+01 0.10607986791E+02 0.11656896443E+02
 0.12218953858E+02 0.12077320237E+02 0.11190064410E+02 0.97303335523E+01 0.80596650589E+01
 0.66322108586E+01 0.58539758558E+01 0.59466360131E+01 0.68718183827E+01 0.83482520128E+01
 0.99518707000E+01 0.11254059929E+02 0.11945090688E+02 0.11906273870E+02 0.11218728132E+02
 0.10115596274E+02 0.88797595651E+01 0.76662975502E+01 0.65566249690E+01 0.56047360571E+01
 0.52430715821E+01 0.45623198482E+01 0.40539794606E+01 0.37048787510E+01 0.35002419344E+01
 0.34289311546E+01 0.34862768228E+01 0.36750275831E+01 0.40046885266E+01 0.44890941649E+01
 0.51418095424E+01 0.59691951172E+01 0.69618319645E+01 0.80866717403E+01 0.92836130975E+01
 0.10469098554E+02 0.11488756041E+02 0.12094132667E+02 0.12112623180E+02 0.11529428256E+02
 0.10511040473E+02 0.93677959325E+01 0.84606784929E+01 0.80809511240E+01 0.83482647992E+01
 0.91698404020E+01 0.10277117150E+02 0.11321375804E+02 0.11987414178E+02 0.12084498668E+02
 0.11589844296E+02 0.10638568807E+02 0.94662790033E+01 0.82632734001E+01 0.71197465069E+01
 0.61001832572E+01 0.56957011504E+01 0.49314768291E+01 0.43329859445E+01 0.38924803981E+01
 0.35966341453E+01 0.34325692854E+01 0.33916485952E+01 0.34713037904E+01 0.36754442778E+01
 0.40136032731E+01 0.44985274544E+01 0.51418095424E+01 0.59475088869E+01 0.69045543920E+01
 0.79801695542E+01 0.91176347175E+01 0.10241052595E+02 0.11232082130E+02 0.11891579364E+02
 0.12083548127E+02 0.11807389882E+02 0.11208091052E+02 0.10533817492E+02 0.10051762606E+02
 0.99518849373E+01 0.10277127084E+02 0.10909360894E+02 0.11615289947E+02 0.12130498400E+02
 0.12247368397E+02 0.11877083752E+02 0.11069576059E+02 0.99894446438E+01 0.88263937446E+01
 0.76801336848E+01 0.66203436062E+01 0.61832237608E+01 0.53532885688E+01 0.46762910694E+01
 0.41516705058E+01 0.37698772464E+01 0.35185547469E+01 0.33870790667E+01 0.33691382868E+01
 0.34638062743E+01 0.36756087233E+01 0.40136032731E+01 0.44890941649E+01 0.51116238776E+01
 0.58832751936E+01 0.67921137195E+01 0.78068236752E+01 0.88754436345E+01 0.99304366731E+01
 0.10886103027E+02 0.11594752862E+02 0.11948678254E+02 0.11950362305E+02 0.11713466174E+02
 0.11420878978E+02 0.11254070866E+02 0.11321386363E+02 0.11615296050E+02 0.12016256579E+02
 0.12339667707E+02 0.12404613658E+02 0.12097493803E+02 0.11409550711E+02 0.10438363121E+02
 0.93415410283E+01 0.82223881161E+01 0.71512144597E+01 0.66948071963E+01 0.58205899097E+01
 0.50804669699E+01 0.44818743684E+01 0.40208212785E+01 0.36875586232E+01 0.34714569351E+01
 0.33642418284E+01 0.33616164977E+01 0.34638062743E+01 0.36754442778E+01 0.40046885266E+01
 0.44611651283E+01 0.50524120968E+01 0.57789367327E+01 0.66286967045E+01 0.75728524565E+01
 0.85652364902E+01 0.95473255595E+01 0.10455952791E+02 0.11195333103E+02 0.11679820363E+02
 0.11906953363E+02 0.11954875903E+02 0.11945103142E+02 0.11987423359E+02 0.12130504921E+02
 0.12339670365E+02 0.12510739381E+02 0.12512479701E+02 0.12239056501E+02 0.11652273720E+02
 0.10799347473E+02 0.97946326134E+01 0.87320994200E+01 0.76793734272E+01 0.72193524028E+01
 0.63257158186E+01 0.55415743945E+01 0.48824325283E+01 0.43509912051E+01 0.39418514986E+01
 0.36462511686E+01 0.34557218410E+01 0.33642418284E+01 0.33691382868E+01 0.34713037904E+01
 0.36750275831E+01 0.39872518395E+01 0.44158185682E+01 0.49664277190E+01 0.56384597420E+01
 0.64204557461E+01 0.72868396390E+01 0.81978726467E+01 0.91041771347E+01 0.99554212540E+01
 0.10698254189E+02 0.11269602781E+02 0.11657720347E+02 0.11906288105E+02 0.12084509444E+02
 0.12247375533E+02 0.12404616944E+02 0.12512479976E+02 0.12491390474E+02 0.12260854829E+02
 0.11776430815E+02 0.11054152779E+02 0.10168683979E+02 0.91936959946E+01 0.81910709576E+01
 0.77442082951E+01 0.68598980612E+01 0.60549157531E+01 0.53524406926E+01 0.47624529083E+01
 0.42852050559E+01 0.39154597314E+01 0.36462511686E+01 0.34714569351E+01 0.33870790667E+01
 0.33916485952E+01 0.34862768228E+01 0.36745522301E+01 0.39620129301E+01 0.43547519393E+01
 0.48568978259E+01 0.54671771497E+01 0.61752973147E+01 0.69594600387E+01 0.77865403917E+01
 0.86159030552E+01 0.94064312048E+01 0.10124096100E+02 0.10734929229E+02 0.11218737671E+02
 0.11589854244E+02 0.11877092176E+02 0.12097499080E+02 0.12239057715E+02 0.12260853837E+02
 0.12110411875E+02 0.11749933341E+02 0.11179714552E+02 0.10442693490E+02 0.95883720826E+01
 0.86702648951E+01 0.82531415831E+01 0.74114769453E+01 0.66136798335E+01 0.58897183642E+01
 0.52569907734E+01 0.47222781575E+01 0.42852050559E+01 0.39418514986E+01 0.36875586232E+01
 0.35185547469E+01 0.34325692854E+01 0.34289311546E+01 0.35086024689E+01 0.36742361684E+01
 0.39299225356E+01 0.42801661631E+01 0.47278681640E+01 0.52715565682E+01 0.59025387120E+01
 0.66029947227E+01 0.73461599201E+01 0.80992921744E+01 0.88290549501E+01 0.95074787334E+01
 0.10115600645E+02 0.10638573663E+02 0.11069581947E+02 0.11409556729E+02 0.11652277394E+02
 0.11776430860E+02 0.11749931946E+02 0.11544560135E+02 0.11153567915E+02 0.10593530707E+02
 0.98937506429E+01 0.90969796197E+01 0.87249075309E+01 0.79637003856E+01 0.72066152673E+01
 0.64886738760E+01 0.58342171542E+01 0.52569907734E+01 0.47624529083E+01 0.43509912051E+01
 0.40208212785E+01 0.37698772464E+01 0.35966341453E+01 0.35002419344E+01 0.34804890192E+01
 0.35379400300E+01 0.36742222313E+01 0.38920680745E+01 0.41946508582E+01 0.45840198873E+01
 0.50588966253E+01 0.56124278824E+01 0.62306571789E+01 0.68925570702E+01 0.75721515234E+01
 0.82424511235E+01 0.88797651297E+01 0.94662816748E+01 0.99894462445E+01 0.10438365936E+02
 0.10799351245E+02 0.11054154901E+02 0.11179713976E+02 0.11153566755E+02 0.10961073740E+02
 0.10600493448E+02 0.10086106398E+02 0.94474101503E+01 0.91336928849E+01 0.84934588906E+01
 0.78156736874E+01 0.71374827317E+01 0.64886738760E+01 0.58897183642E+01 0.53524406926E+01
 0.48824325283E+01 0.44818743684E+01 0.41516705058E+01 0.38924803981E+01 0.37048787510E+01
 0.35891797412E+01 0.35454096870E+01 0.35736361045E+01 0.36745138482E+01 0.38496134178E+01
 0.41010819392E+01 0.44304673167E+01 0.48369581723E+01 0.53155629233E+01 0.58557986797E+01
 0.64415171426E+01 0.70523084104E+01 0.76663045854E+01 0.82632789913E+01 0.88263958289E+01
 0.93415409768E+01 0.97946332551E+01 0.10168685542E+02 0.10442694069E+02 0.10593530098E+02
 0.10600493157E+02 0.10450908425E+02 0.10144707186E+02 0.96963840944E+01 0.94518788903E+01
 0.89721041643E+01 0.84149736067E+01 0.78156736874E+01 0.72066152673E+01 0.66136798335E+01
 0.60549157531E+01 0.55415743945E+01 0.50804669699E+01 0.46762910694E+01 0.43329859445E+01
 0.40539794606E+01 0.38418234496E+01 0.36978518879E+01 0.36222643479E+01 0.36146870762E+01
 0.36749726444E+01 0.38037847757E+01 0.40025374691E+01 0.42725382737E+01 0.46135549419E+01
 0.50222731187E+01 0.54911090899E+01 0.60078672120E+01 0.65566272834E+01 0.71197525292E+01
 0.76801397051E+01 0.82223903808E+01 0.87320985999E+01 0.91936949139E+01 0.95883715593E+01
 0.98937502040E+01 0.10086106715E+02 0.10144708451E+02 0.10056825907E+02 0.98216667106E+01
 0.96545153816E+01 0.93686341960E+01 0.89721041643E+01 0.84934588906E+01 0.79637003856E+01
 0.74114769453E+01 0.68598980612E+01 0.63257158186E+01 0.58205899097E+01 0.53532885688E+01
 0.49314768291E+01 0.45623198482E+01 0.42520377895E+01 0.40051343202E+01 0.38239851648E+01
 0.37090736686E+01 0.36597761709E+01 0.36753817441E+01 0.37558961623E+01 0.39022181963E+01
 0.41155371716E+01 0.43961379041E+01 0.47420453308E+01 0.51479373784E+01 0.56047342047E+01
 0.61001851180E+01 0.66203503134E+01 0.71512211215E+01 0.76793756904E+01 0.81910694807E+01
 0.86702625081E+01 0.90969778341E+01 0.94474099297E+01 0.96963863730E+01 0.98216698372E+01
 0.98087475982E+01 0.96545202876E+01 0.95447019495E+01 0.93149891606E+01 0.89829803437E+01
 0.85730255296E+01 0.81117457408E+01 0.76237689564E+01 0.71289737836E+01 0.66419282957E+01
 0.61732380383E+01 0.57316664824E+01 0.53257014476E+01 0.49638448222E+01 0.46538391500E+01
 0.44016298314E+01 0.42107845056E+01 0.40826462593E+01 0.40170913939E+01 0.40135572908E+01
 0.40718891077E+01 0.41925956991E+01 0.43763699824E+01 0.46230437293E+01 0.49303888042E+01
 0.52931952636E+01 0.57030180748E+01 0.61488575207E+01 0.66185926803E+01 0.71003898564E+01
 0.75830765777E+01 0.80550241091E+01 0.85021249505E+01 0.89062250516E+01 0.92453029053E+01
 0.94958614590E+01 0.96369501692E+01 0.95447054266E+01 0.96545197734E+01 0.96369461364E+01
 0.94958576773E+01 0.92453018783E+01 0.89062259788E+01 0.85021257949E+01 0.80550241084E+01
 0.75830763530E+01 0.71003909281E+01 0.66185979382E+01 0.61488700528E+01 0.57030369021E+01
 0.52932127636E+01 0.49303954096E+01 0.46230379462E+01 0.43763612379E+01 0.41925942462E+01
 0.40718951046E+01 0.40135631910E+01 0.40170935584E+01 0.40826484653E+01 0.42107895266E+01
 0.44016325800E+01 0.46538327415E+01 0.49638305617E+01 0.53256876358E+01 0.57316588308E+01
 0.61732356783E+01 0.66419279582E+01 0.71289738544E+01 0.76237688188E+01 0.81117446529E+01
 0.85730242681E+01 0.89829813557E+01 0.93149930363E+01 0.92988155627E+01 0.96203479017E+01
 0.98216697030E+01 0.98917612081E+01 0.98313820229E+01 0.96518366578E+01 0.93715783999E+01
 0.90117805948E+01 0.85924191107E+01 0.81302086615E+01 0.76388689707E+01 0.71310309514E+01
 0.66202786332E+01 0.61219024312E+01 0.56519080459E+01 0.52249762831E+01 0.48525806428E+01
 0.45420984421E+01 0.42970511293E+01 0.41181435459E+01 0.40046510045E+01 0.39556946996E+01
 0.39709527391E+01 0.40506203299E+01 0.41947869183E+01 0.44026417020E+01 0.46719308760E+01
 0.49989191655E+01 0.53788675413E+01 0.58066654930E+01 0.62769409505E+01 0.67830598761E+01
 0.73150647093E+01 0.78574269649E+01 0.83879113954E+01 0.88785434470E+01 0.89361956521E+01
 0.94470621467E+01 0.98582728141E+01 0.10144709039E+02 0.10292571984E+02 0.10300658922E+02
 0.10178829063E+02 0.99441775273E+01 0.96162751616E+01 0.92132503689E+01 0.87501332275E+01
 0.82397823251E+01 0.76953866925E+01 0.71327368482E+01 0.65707172778E+01 0.60296788518E+01
 0.55286464013E+01 0.50828188419E+01 0.47023170527E+01 0.43923237982E+01 0.41542248739E+01
 0.39872154975E+01 0.38898586656E+01 0.38610918476E+01 0.39004619222E+01 0.40077634994E+01
 0.41824989812E+01 0.44235593655E+01 0.47292890285E+01 0.50978100860E+01 0.55271686448E+01
 0.60147150731E+01 0.65553752870E+01 0.71391161228E+01 0.77486088576E+01 0.83583614278E+01
 0.84839377491E+01 0.91509901369E+01 0.97491260342E+01 0.10241566241E+02 0.10600496523E+02
 0.10810901797E+02 0.10871480447E+02 0.10792382743E+02 0.10590530345E+02 0.10284259458E+02
 0.98894106399E+01 0.94183634721E+01 0.88820533097E+01 0.82934641765E+01 0.76703552306E+01
 0.70355160887E+01 0.64143606352E+01 0.58311487331E+01 0.53056208444E+01 0.48512020858E+01
 0.44749689181E+01 0.41789340530E+01 0.39619826406E+01 0.38218130648E+01 0.37563163427E+01
 0.37641423574E+01 0.38446348272E+01 0.39975525824E+01 0.42229410497E+01 0.45212236256E+01
 0.48932689215E+01 0.53399534903E+01 0.58607608893E+01 0.64513325587E+01 0.71005132536E+01
 0.77880119364E+01 0.79719805800E+01 0.87562970783E+01 0.95084588643E+01 0.10183423263E+02
 0.10741323221E+02 0.11153574486E+02 0.11406343389E+02 0.11499138784E+02 0.11445318787E+02
 0.11265708801E+02 0.10977293368E+02 0.10589172750E+02 0.10107758884E+02 0.95422387334E+01
 0.89047626645E+01 0.82150446389E+01 0.75004182838E+01 0.67923593156E+01 0.61213968110E+01
 0.55126086800E+01 0.49831336742E+01 0.45419626715E+01 0.41914844820E+01 0.39299059014E+01
 0.37536988860E+01 0.36594300589E+01 0.36447038360E+01 0.37084065690E+01 0.38506592399E+01
 0.40728037333E+01 0.43774073962E+01 0.47679454293E+01 0.52476738791E+01 0.58173994156E+01
 0.64723290729E+01 0.71987773531E+01 0.74284730051E+01 0.82902510680E+01 0.91586452773E+01
 0.99839478000E+01 0.10716923430E+02 0.11316617355E+02 0.11749942572E+02 0.12000427207E+02
 0.12083506430E+02 0.12031482982E+02 0.11873099772E+02 0.11619320144E+02 0.11262279086E+02
 0.10787956614E+02 0.10195950983E+02 0.95075094614E+01 0.87473529063E+01 0.79484020862E+01
 0.71493912476E+01 0.63881371052E+01 0.56956746571E+01 0.50930105369E+01 0.45908321927E+01
 0.41914887979E+01 0.38920680143E+01 0.36874720007E+01 0.35727579903E+01 0.35444786803E+01
 0.36012124677E+01 0.37436832413E+01 0.39747563427E+01 0.42992227984E+01 0.47229505316E+01
 0.52509494385E+01 0.58842566101E+01 0.66161140188E+01 0.68767339627E+01 0.77788596076E+01
 0.87253972550E+01 0.96652470796E+01 0.10542582043E+02 0.11304008638E+02 0.11888434869E+02
 0.12260863995E+02 0.12437124394E+02 0.12467334669E+02 0.12407171239E+02 0.12289648769E+02
 0.12110052896E+02 0.11831346468E+02 0.11407938970E+02 0.10816688484E+02 0.10079842956E+02
 0.92475446996E+01 0.83623224041E+01 0.74713979795E+01 0.66206902327E+01 0.58474967154E+01
 0.51765373766E+01 0.46197565331E+01 0.41789422883E+01 0.38496247841E+01 0.36248747996E+01
 0.34981921880E+01 0.34652269576E+01 0.35245385349E+01 0.36777897780E+01 0.39296350397E+01
 0.42871314258E+01 0.47581918606E+01 0.53487006046E+01 0.60584552118E+01 0.63344604631E+01
 0.72441620863E+01 0.82334339144E+01 0.92526145392E+01 0.10241898523E+02 0.11136273496E+02
 0.11843751137E+02 0.12300339263E+02 0.12512486759E+02 0.12546708565E+02 0.12496909515E+02
 0.12441896681E+02 0.12410094483E+02 0.12366955528E+02 0.12231507933E+02 0.11915308404E+02
 0.11366683361E+02 0.10600831305E+02 0.96968118276E+01 0.87260435109E+01 0.77455049384E+01
 0.68096655381E+01 0.59619942934E+01 0.52304600658E+01 0.46276488250E+01 0.41542286931E+01
 0.38037984516E+01 0.35674672604E+01 0.34372859423E+01 0.34082968090E+01 0.34794338073E+01
 0.36536896635E+01 0.39377623958E+01 0.43409211464E+01 0.48725581673E+01 0.55382006851E+01
 0.58148603947E+01 0.67037234106E+01 0.77039492751E+01 0.87699479571E+01 0.98405864037E+01
 0.10843317150E+02 0.11658377309E+02 0.12178594052E+02 0.12382601946E+02 0.12339673977E+02