   2   2   0   0
  0.1577457E+02  0.3685523E-09  0.3685523E-09  0.3685523E-09  0.5000000E-15
  1.000000000000000E-004
  CAR 
 unknown system                          
     22.72796270     -6.62589123  301      8.70277896      1.00000000
     -6.626  0.0000E+00  0.0000E+00
     -6.528  0.0000E+00  0.0000E+00
     -6.430  0.0000E+00  0.0000E+00
     -6.332  0.0000E+00  0.0000E+00
     -6.235  0.0000E+00  0.0000E+00
     -6.137  0.0000E+00  0.0000E+00
     -6.039  0.0000E+00  0.0000E+00
     -5.941  0.0000E+00  0.0000E+00
     -5.843  0.0000E+00  0.0000E+00
     -5.745  0.1300E-16  0.1272E-17
     -5.647  0.2687E-14  0.2641E-15
     -5.550  0.3439E-12  0.3392E-13
     -5.452  0.2750E-10  0.2725E-11
     -5.354  0.1376E-08  0.1373E-09
     -5.256  0.4308E-07  0.4352E-08
     -5.158  0.8460E-06  0.8713E-07
     -5.060  0.1043E-04  0.1108E-05
     -4.963  0.8101E-04  0.9034E-05
     -4.865  0.3973E-03  0.4791E-04
     -4.767  0.1241E-02  0.1693E-03
     -4.669  0.2533E-02  0.4172E-03
     -4.571  0.3682E-02  0.7774E-03
     -4.473  0.4835E-02  0.1251E-02
     -4.375  0.7408E-02  0.1975E-02
     -4.278  0.1154E-01  0.3104E-02
     -4.180  0.1452E-01  0.4526E-02
     -4.082  0.1428E-01  0.5923E-02
     -3.984  0.1197E-01  0.7094E-02
     -3.886  0.9618E-02  0.8035E-02
     -3.788  0.8730E-02  0.8890E-02
     -3.691  0.1087E-01  0.9953E-02
     -3.593  0.1648E-01  0.1157E-01
     -3.495  0.2285E-01  0.1380E-01
     -3.397  0.2472E-01  0.1622E-01
     -3.299  0.2051E-01  0.1823E-01
     -3.201  0.1604E-01  0.1980E-01
     -3.103  0.1674E-01  0.2143E-01
     -3.006  0.2037E-01  0.2343E-01
     -2.908  0.2147E-01  0.2553E-01
     -2.810  0.1962E-01  0.2745E-01
     -2.712  0.1918E-01  0.2932E-01
     -2.614  0.2188E-01  0.3147E-01
     -2.516  0.2489E-01  0.3390E-01
     -2.419  0.2592E-01  0.3644E-01
     -2.321  0.2533E-01  0.3892E-01
     -2.223  0.2376E-01  0.4124E-01
     -2.125  0.2313E-01  0.4350E-01
     -2.027  0.2650E-01  0.4610E-01
     -1.929  0.3135E-01  0.4916E-01
     -1.831  0.3077E-01  0.5217E-01
     -1.734  0.2410E-01  0.5453E-01
     -1.636  0.1735E-01  0.5623E-01
     -1.538  0.1491E-01  0.5769E-01
     -1.440  0.1760E-01  0.5941E-01
     -1.342  0.2591E-01  0.6195E-01
     -1.244  0.3864E-01  0.6573E-01
     -1.147  0.4916E-01  0.7054E-01
     -1.049  0.5022E-01  0.7545E-01
     -0.951  0.4335E-01  0.7969E-01
     -0.853  0.3655E-01  0.8327E-01
     -0.755  0.3346E-01  0.8654E-01
     -0.657  0.3070E-01  0.8955E-01
     -0.559  0.2575E-01  0.9207E-01
     -0.462  0.2073E-01  0.9410E-01
     -0.364  0.1822E-01  0.9588E-01
     -0.266  0.1968E-01  0.9780E-01
     -0.168  0.2520E-01  0.1003E+00
     -0.070  0.3192E-01  0.1034E+00
      0.028  0.3621E-01  0.1069E+00
      0.125  0.3872E-01  0.1107E+00
      0.223  0.4255E-01  0.1149E+00
      0.321  0.4743E-01  0.1195E+00
      0.419  0.4980E-01  0.1244E+00
      0.517  0.4772E-01  0.1291E+00
      0.615  0.4378E-01  0.1334E+00
      0.713  0.4100E-01  0.1374E+00
      0.810  0.4089E-01  0.1414E+00
      0.908  0.4335E-01  0.1456E+00
      1.006  0.4509E-01  0.1500E+00
      1.104  0.4685E-01  0.1546E+00
      1.202  0.5335E-01  0.1598E+00
      1.300  0.5890E-01  0.1656E+00
      1.397  0.5184E-01  0.1707E+00
      1.495  0.3462E-01  0.1740E+00
      1.593  0.2065E-01  0.1761E+00
      1.691  0.1565E-01  0.1776E+00
      1.789  0.1549E-01  0.1791E+00
      1.887  0.1627E-01  0.1807E+00
      1.985  0.1977E-01  0.1826E+00
      2.082  0.2915E-01  0.1855E+00
      2.180  0.4165E-01  0.1896E+00
      2.278  0.5102E-01  0.1946E+00
      2.376  0.5375E-01  0.1998E+00
      2.474  0.5086E-01  0.2048E+00
      2.572  0.4705E-01  0.2094E+00
      2.669  0.4602E-01  0.2139E+00
      2.767  0.4683E-01  0.2185E+00
      2.865  0.4784E-01  0.2232E+00
      2.963  0.4905E-01  0.2280E+00
      3.061  0.4720E-01  0.2326E+00
      3.159  0.3771E-01  0.2363E+00
      3.257  0.2538E-01  0.2388E+00
      3.354  0.2089E-01  0.2408E+00
      3.452  0.2619E-01  0.2434E+00
      3.550  0.3344E-01  0.2466E+00
      3.648  0.3613E-01  0.2502E+00
      3.746  0.3459E-01  0.2536E+00
      3.844  0.3264E-01  0.2567E+00
      3.941  0.3500E-01  0.2602E+00
      4.039  0.4607E-01  0.2647E+00
      4.137  0.6446E-01  0.2710E+00
      4.235  0.7887E-01  0.2787E+00
      4.333  0.7971E-01  0.2865E+00
      4.431  0.7209E-01  0.2936E+00
      4.529  0.6438E-01  0.2999E+00
      4.626  0.5592E-01  0.3053E+00
      4.724  0.4629E-01  0.3099E+00
      4.822  0.4057E-01  0.3138E+00
      4.920  0.4126E-01  0.3179E+00
      5.018  0.4329E-01  0.3221E+00
      5.116  0.4040E-01  0.3261E+00
      5.213  0.3532E-01  0.3295E+00
      5.311  0.3689E-01  0.3331E+00
      5.409  0.4731E-01  0.3378E+00
      5.507  0.5905E-01  0.3435E+00
      5.605  0.6400E-01  0.3498E+00
      5.703  0.6359E-01  0.3560E+00
      5.801  0.6582E-01  0.3625E+00
      5.898  0.6961E-01  0.3693E+00
      5.996  0.6645E-01  0.3758E+00
      6.094  0.5675E-01  0.3813E+00
      6.192  0.4845E-01  0.3861E+00
      6.290  0.4678E-01  0.3906E+00
      6.388  0.5219E-01  0.3957E+00
      6.485  0.5987E-01  0.4016E+00
      6.583  0.6272E-01  0.4077E+00
      6.681  0.5927E-01  0.4135E+00
      6.779  0.5568E-01  0.4190E+00
      6.877  0.5937E-01  0.4248E+00
      6.975  0.7013E-01  0.4317E+00
      7.073  0.8075E-01  0.4396E+00
      7.170  0.8792E-01  0.4482E+00
      7.268  0.9120E-01  0.4571E+00
      7.366  0.8740E-01  0.4656E+00
      7.464  0.7728E-01  0.4732E+00
      7.562  0.6563E-01  0.4796E+00
      7.660  0.5480E-01  0.4850E+00
      7.757  0.4681E-01  0.4896E+00
      7.855  0.4285E-01  0.4938E+00
      7.953  0.4085E-01  0.4978E+00
      8.051  0.3979E-01  0.5016E+00
      8.149  0.4081E-01  0.5056E+00
      8.247  0.4316E-01  0.5099E+00
      8.345  0.4387E-01  0.5142E+00
      8.442  0.4368E-01  0.5184E+00
      8.540  0.4856E-01  0.5232E+00
      8.638  0.5954E-01  0.5290E+00
      8.736  0.6722E-01  0.5356E+00
      8.834  0.6305E-01  0.5417E+00
      8.932  0.5328E-01  0.5470E+00
      9.029  0.5287E-01  0.5521E+00
      9.127  0.6180E-01  0.5582E+00
      9.225  0.6130E-01  0.5642E+00
      9.323  0.4336E-01  0.5684E+00
      9.421  0.2310E-01  0.5707E+00
      9.519  0.1541E-01  0.5722E+00
      9.617  0.2036E-01  0.5742E+00
      9.714  0.2996E-01  0.5771E+00
      9.812  0.3718E-01  0.5808E+00
      9.910  0.4098E-01  0.5848E+00
     10.008  0.4456E-01  0.5891E+00
     10.106  0.4818E-01  0.5938E+00
     10.204  0.4828E-01  0.5986E+00
     10.301  0.4589E-01  0.6031E+00
     10.399  0.4751E-01  0.6077E+00
     10.497  0.5658E-01  0.6132E+00
     10.595  0.6890E-01  0.6200E+00
     10.693  0.7590E-01  0.6274E+00
     10.791  0.7530E-01  0.6348E+00
     10.889  0.7360E-01  0.6420E+00
     10.986  0.7254E-01  0.6491E+00
     11.084  0.6693E-01  0.6556E+00
     11.182  0.5791E-01  0.6613E+00
     11.280  0.5627E-01  0.6668E+00
     11.378  0.6935E-01  0.6736E+00
     11.476  0.9009E-01  0.6824E+00
     11.573  0.1055E+00  0.6927E+00
     11.671  0.1092E+00  0.7034E+00
     11.769  0.1006E+00  0.7132E+00
     11.867  0.8173E-01  0.7212E+00
     11.965  0.5942E-01  0.7271E+00
     12.063  0.4280E-01  0.7312E+00
     12.161  0.3420E-01  0.7346E+00
     12.258  0.2927E-01  0.7375E+00
     12.356  0.2939E-01  0.7403E+00
     12.454  0.4173E-01  0.7444E+00
     12.552  0.6293E-01  0.7506E+00
     12.650  0.7771E-01  0.7582E+00
     12.748  0.7766E-01  0.7658E+00
     12.845  0.7090E-01  0.7727E+00
     12.943  0.6866E-01  0.7794E+00
     13.041  0.7009E-01  0.7863E+00
     13.139  0.6708E-01  0.7929E+00
     13.237  0.5775E-01  0.7985E+00
     13.335  0.4828E-01  0.8032E+00
     13.433  0.4623E-01  0.8078E+00
     13.530  0.5807E-01  0.8134E+00
     13.628  0.8368E-01  0.8216E+00
     13.726  0.1075E+00  0.8321E+00
     13.824  0.1128E+00  0.8432E+00
     13.922  0.1042E+00  0.8534E+00
     14.020  0.9425E-01  0.8626E+00
     14.117  0.8431E-01  0.8708E+00
     14.215  0.7118E-01  0.8778E+00
     14.313  0.5823E-01  0.8835E+00
     14.411  0.5246E-01  0.8886E+00
     14.509  0.5684E-01  0.8942E+00
     14.607  0.6679E-01  0.9007E+00
     14.705  0.7448E-01  0.9080E+00
     14.802  0.7507E-01  0.9154E+00
     14.900  0.6868E-01  0.9221E+00
     14.998  0.6043E-01  0.9280E+00
     15.096  0.5645E-01  0.9335E+00
     15.194  0.5769E-01  0.9392E+00
     15.292  0.6135E-01  0.9452E+00
     15.389  0.6341E-01  0.9514E+00
     15.487  0.6024E-01  0.9573E+00
     15.585  0.5391E-01  0.9625E+00
     15.683  0.4768E-01  0.9672E+00
     15.781  0.4054E-01  0.9712E+00
     15.879  0.3363E-01  0.9745E+00
     15.977  0.3078E-01  0.9775E+00
     16.074  0.3217E-01  0.9806E+00
     16.172  0.3473E-01  0.9840E+00
     16.270  0.3826E-01  0.9878E+00
     16.368  0.4632E-01  0.9923E+00
     16.466  0.5772E-01  0.9979E+00
     16.564  0.6573E-01  0.1004E+01
     16.661  0.6741E-01  0.1011E+01
     16.759  0.6314E-01  0.1017E+01
     16.857  0.5298E-01  0.1022E+01
     16.955  0.3960E-01  0.1026E+01
     17.053  0.2683E-01  0.1029E+01
     17.151  0.1738E-01  0.1031E+01
     17.249  0.1292E-01  0.1032E+01
     17.346  0.1250E-01  0.1033E+01
     17.444  0.1394E-01  0.1034E+01
     17.542  0.1692E-01  0.1036E+01
     17.640  0.2293E-01  0.1038E+01
     17.738  0.3181E-01  0.1041E+01
     17.836  0.3843E-01  0.1045E+01
     17.933  0.3697E-01  0.1049E+01
     18.031  0.2828E-01  0.1052E+01
     18.129  0.1806E-01  0.1053E+01
     18.227  0.1025E-01  0.1054E+01
     18.325  0.5356E-02  0.1055E+01
     18.423  0.2620E-02  0.1055E+01
     18.521  0.1614E-02  0.1055E+01
     18.618  0.2616E-02  0.1056E+01
     18.716  0.5800E-02  0.1056E+01
     18.814  0.9895E-02  0.1057E+01
     18.912  0.1260E-01  0.1058E+01
     19.010  0.1260E-01  0.1060E+01
     19.108  0.1007E-01  0.1060E+01
     19.206  0.6203E-02  0.1061E+01
     19.303  0.2881E-02  0.1061E+01
     19.401  0.1596E-02  0.1062E+01
     19.499  0.2581E-02  0.1062E+01
     19.597  0.4766E-02  0.1062E+01
     19.695  0.6035E-02  0.1063E+01
     19.793  0.5416E-02  0.1063E+01
     19.890  0.4304E-02  0.1064E+01
     19.988  0.3796E-02  0.1064E+01
     20.086  0.3536E-02  0.1065E+01
     20.184  0.3403E-02  0.1065E+01
     20.282  0.3302E-02  0.1065E+01
     20.380  0.2668E-02  0.1065E+01
     20.478  0.1757E-02  0.1066E+01
     20.575  0.1592E-02  0.1066E+01
     20.673  0.2340E-02  0.1066E+01
     20.771  0.2895E-02  0.1066E+01
     20.869  0.2352E-02  0.1067E+01
     20.967  0.1212E-02  0.1067E+01
     21.065  0.3941E-03  0.1067E+01
     21.162  0.8078E-04  0.1067E+01
     21.260  0.1042E-04  0.1067E+01
     21.358  0.8457E-06  0.1067E+01
     21.456  0.4307E-07  0.1067E+01
     21.554  0.1376E-08  0.1067E+01
     21.652  0.2750E-10  0.1067E+01
     21.750  0.3439E-12  0.1067E+01
     21.847  0.2687E-14  0.1067E+01
     21.945  0.1300E-16  0.1067E+01
     22.043  0.0000E+00  0.1067E+01
     22.141  0.0000E+00  0.1067E+01
     22.239  0.0000E+00  0.1067E+01
     22.337  0.0000E+00  0.1067E+01
     22.434  0.0000E+00  0.1067E+01
     22.532  0.0000E+00  0.1067E+01
     22.630  0.0000E+00  0.1067E+01
     22.728  0.0000E+00  0.1067E+01
