    2    2   15    1
  0.1577457E+02  0.3685523E-09  0.3685523E-09  0.3685523E-09  0.5000000E-15
  1.000000000000000E-004
  CAR 
 unknown system                          
      8     56      8
 
  0.6250000E-01  0.6250000E-01  0.6250000E-01  0.1562500E-01
    1       -4.217291   1.000000
    2        4.451078   1.000000
    3        6.715467   1.000000
    4        8.246381   0.999375
    5       11.870657   0.000000
    6       13.743996   0.000000
    7       14.310075   0.000000
    8       16.166448   0.000000
 
  0.1875000E+00  0.6250000E-01  0.6250000E-01  0.3125000E-01
    1       -2.998683   1.000000
    2        4.205329   1.000000
    3        7.015313   1.000000
    4        9.181173   0.000359
    5       10.843172   0.000000
    6       10.952780   0.000000
    7       13.707347   0.000000
    8       14.469074   0.000000
 
  0.3125000E+00  0.6250000E-01  0.6250000E-01  0.3125000E-01
    1       -0.997792   1.000000
    2        4.503873   1.000000
    3        5.575149   1.000000
    4        7.285190   1.000000
    5        8.640250   0.670808
    6       11.764180   0.000000
    7       13.230350   0.000000
    8       13.614778   0.000000
 
  0.4375000E+00  0.6250000E-01  0.6250000E-01  0.1562500E-01
    1        1.343167   1.000000
    2        2.254070   1.000000
    3        5.804093   1.000000
    4        6.191561   1.000000
    5        8.523754   0.897225
    6       10.596762   0.000000
    7       13.135264   0.000000
    8       14.075326   0.000000
 
 -0.6250000E-01  0.6250000E-01  0.6250000E-01  0.7812500E-02
    1       -4.625891   1.000000
    2        5.059423   1.000000
    3        5.907615   1.000000
    4        7.915114   1.000000
    5       11.000537   0.000000
    6       14.893205   0.000000
    7       17.375051   0.000000
    8       17.476493   0.000000
 
  0.1875000E+00  0.1875000E+00  0.6250000E-01  0.1562500E-01
    1       -1.181080   1.000000
    2        4.492989   1.000000
    3        6.461587   1.000000
    4        6.653915   1.000000
    5        9.608651   0.000000
    6       11.612154   0.000000
    7       12.901915   0.000000
    8       13.093999   0.000000
 
  0.3125000E+00  0.1875000E+00  0.6250000E-01  0.3125000E-01
    1        1.288353   1.000000
    2        2.986112   1.000000
    3        4.335317   1.000000
    4        5.810877   1.000000
    5        9.866321   0.000000
    6       11.601717   0.000000
    7       12.626565   0.000000
    8       14.669818   0.000000
 
  0.4375000E+00  0.1875000E+00  0.6250000E-01  0.3125000E-01
    1       -0.081789   1.000000
    2        2.757818   1.000000
    3        4.935040   1.000000
    4        7.289031   1.000000
    5        9.109604   0.002009
    6       11.771686   0.000000
    7       13.692630   0.000000
    8       14.584303   0.000000
 
 -0.4375000E+00  0.1875000E+00  0.6250000E-01  0.3125000E-01
    1       -2.249294   1.000000
    2        2.136272   1.000000
    3        7.561115   1.000000
    4        8.839945   0.166046
    5       10.371793   0.000000
    6       11.499857   0.000000
    7       12.708145   0.000000
    8       15.054399   0.000000
 
 -0.3125000E+00  0.1875000E+00  0.6250000E-01  0.1562500E-01
    1       -3.650249   1.000000
    2        2.225677   1.000000
    3        7.223071   1.000000
    4        9.169016   0.000489
    5       12.163122   0.000000
    6       13.676244   0.000000
    7       14.223712   0.000000
    8       14.860199   0.000000
 
 -0.1875000E+00  0.1875000E+00  0.6250000E-01  0.1562500E-01
    1       -4.246806   1.000000
    2        3.040415   1.000000
    3        6.025260   1.000000
    4        9.150321   0.000776
    5       12.817551   0.000000
    6       12.971400   0.000000
    7       15.905200   0.000000
    8       17.262148   0.000000
 
 -0.6250000E-01  0.1875000E+00  0.6250000E-01  0.1562500E-01
    1       -4.028226   1.000000
    2        4.170620   1.000000
    3        5.389143   1.000000
    4        9.732952   0.000000
    5       12.596081   0.000000
    6       12.730390   0.000000
    7       13.770419   0.000000
    8       15.758894   0.000000
 
  0.3125000E+00  0.3125000E+00  0.6250000E-01  0.1562500E-01
    1        1.149225   1.000000
    2        1.215362   1.000000
    3        4.742800   1.000000
    4        7.231725   1.000000
    5        9.849326   0.000000
    6       10.677813   0.000000
    7       14.724856   0.000000
    8       15.578134   0.000000
 
  0.4375000E+00  0.3125000E+00  0.6250000E-01  0.3125000E-01
    1       -1.133516   1.000000
    2        0.336371   1.000000
    3        8.089053   0.999993
    4        8.697382   0.515222
    5       10.019390   0.000000
    6       11.415277   0.000000
    7       12.518693   0.000000
    8       13.912121   0.000000
 
 -0.4375000E+00  0.3125000E+00  0.6250000E-01  0.1562500E-01
    1       -2.710111   1.000000
    2        0.249579   1.000000
    3        8.060608   0.999997
    4       10.133411   0.000000
    5       10.651639   0.000000
    6       12.737957   0.000000
    7       13.787284   0.000000
    8       13.871852   0.000000
 
 -0.3125000E+00  0.3125000E+00  0.6250000E-01  0.1562500E-01
    1       -3.491563   1.000000
    2        0.937473   1.000000
    3        6.710725   1.000000
    4       10.088669   0.000000
    5       10.841162   0.000000
    6       14.181984   0.000000
    7       15.878829   0.000000
    8       16.953906   0.000000
 
 -0.1875000E+00  0.3125000E+00  0.6250000E-01  0.3125000E-01
    1       -3.462532   1.000000
    2        2.350841   1.000000
    3        5.511268   1.000000
    4       10.684334   0.000000
    5       11.079821   0.000000
    6       12.988800   0.000000
    7       14.759643   0.000000
    8       15.672898   0.000000
 
 -0.6250000E-01  0.3125000E+00  0.6250000E-01  0.1562500E-01
    1       -2.624316   1.000000
    2        4.032832   1.000000
    3        5.395654   1.000000
    4        8.482780   0.940102
    5       11.118149   0.000000
    6       12.670088   0.000000
    7       13.336954   0.000000
    8       13.689453   0.000000
 
  0.4375000E+00  0.4375000E+00  0.6250000E-01  0.7812500E-02
    1       -1.405287   1.000000
    2       -1.405287   1.000000
    3        9.207026   0.000182
    4        9.207027   0.000182
    5       11.385743   0.000000
    6       11.385744   0.000000
    7       13.588471   0.000000
    8       13.588472   0.000000
 
 -0.4375000E+00  0.4375000E+00  0.6250000E-01  0.1562500E-01
    1       -2.366508   1.000000
    2       -0.882955   1.000000
    3        7.755438   1.000000
    4        9.139362   0.001011
    5       11.201387   0.000000
    6       12.575713   0.000000
    7       16.655717   0.000000
    8       16.754235   0.000000
 
 -0.3125000E+00  0.4375000E+00  0.6250000E-01  0.3125000E-01
    1       -2.525090   1.000000
    2        0.417402   1.000000
    3        6.346525   1.000000
    4        9.081496   0.003704
    5       11.433451   0.000000
    6       12.914342   0.000000
    7       14.858286   0.000000
    8       15.377998   0.000000
 
 -0.1875000E+00  0.4375000E+00  0.6250000E-01  0.3125000E-01
    1       -1.879191   1.000000
    2        2.421827   1.000000
    3        5.604276   1.000000
    4        7.843193   1.000000
    5        9.704021   0.000000
    6       12.527857   0.000000
    7       14.024865   0.000000
    8       15.364471   0.000000
 
 -0.6250000E-01  0.4375000E+00  0.6250000E-01  0.1562500E-01
    1       -0.450896   1.000000
    2        4.079563   1.000000
    3        5.224823   1.000000
    4        6.013946   1.000000
    5        9.172849   0.000444
    6       11.581129   0.000000
    7       11.905288   0.000000
    8       15.204428   0.000000
 
 -0.4375000E+00 -0.4375000E+00  0.6250000E-01  0.1562500E-01
    1       -1.228697   1.000000
    2       -1.222177   1.000000
    3        7.547484   1.000000
    4        7.560447   1.000000
    5       11.523972   0.000000
    6       13.422836   0.000000
    7       14.264792   0.000000
    8       14.863398   0.000000
 
 -0.3125000E+00 -0.4375000E+00  0.6250000E-01  0.3125000E-01
    1       -0.771789   1.000000
    2        0.680169   1.000000
    3        6.505491   1.000000
    4        7.422264   1.000000
    5        8.281745   0.998545
    6       12.179155   0.000000
    7       15.119185   0.000000
    8       16.428219   0.000000
 
 -0.1875000E+00 -0.4375000E+00  0.6250000E-01  0.3125000E-01
    1        0.448174   1.000000
    2        3.073493   1.000000
    3        4.232957   1.000000
    4        6.448699   1.000000
    5        8.680817   0.561707
    6       10.620805   0.000000
    7       13.122312   0.000000
    8       16.514919   0.000000
 
 -0.6250000E-01 -0.4375000E+00  0.6250000E-01  0.1562500E-01
    1        0.936066   1.000000
    2        2.662047   1.000000
    3        6.256627   1.000000
    4        6.985491   1.000000
    5        7.609928   1.000000
    6       10.211686   0.000000
    7       11.664703   0.000000
    8       15.414817   0.000000
 
 -0.3125000E+00 -0.3125000E+00  0.6250000E-01  0.1562500E-01
    1        1.585757   1.000000
    2        1.759228   1.000000
    3        3.934232   1.000000
    4        7.321969   1.000000
    5        7.729838   1.000000
    6       10.243247   0.000000
    7       14.975612   0.000000
    8       15.648596   0.000000
 
 -0.1875000E+00 -0.3125000E+00  0.6250000E-01  0.3125000E-01
    1        0.621891   1.000000
    2        3.662678   1.000000
    3        5.005978   1.000000
    4        7.182057   1.000000
    5        8.294299   0.998064
    6       10.106008   0.000000
    7       11.693609   0.000000
    8       14.103996   0.000000
 
 -0.6250000E-01 -0.3125000E+00  0.6250000E-01  0.1562500E-01
    1       -1.551855   1.000000
    2        5.851873   1.000000
    3        6.855828   1.000000
    4        7.227285   1.000000
    5        8.471529   0.948995
    6       10.942462   0.000000
    7       11.688606   0.000000
    8       13.349438   0.000000
 
 -0.1875000E+00 -0.1875000E+00  0.6250000E-01  0.1562500E-01
    1       -1.737214   1.000000
    2        6.482264   1.000000
    3        7.146841   1.000000
    4        7.441070   1.000000
    5        8.805286   0.234277
    6       10.475295   0.000000
    7       11.641573   0.000000
    8       11.866057   0.000000
 
 -0.6250000E-01 -0.1875000E+00  0.6250000E-01  0.1562500E-01
    1       -3.374881   1.000000
    2        6.169536   1.000000
    3        6.910215   1.000000
    4        8.769058   0.319656
    5       10.902008   0.000000
    6       11.334729   0.000000
    7       12.112593   0.000000
    8       13.859973   0.000000
 
 -0.6250000E-01 -0.6250000E-01  0.6250000E-01  0.3906250E-02
    1       -4.406793   1.000000
    2        6.545486   1.000000
    3        6.545487   1.000000
    4        6.831012   1.000000
    5       10.754004   0.000000
    6       14.541925   0.000000
    7       14.655840   0.000000
    8       16.536509   0.000000
 
  0.1875000E+00  0.1875000E+00  0.1875000E+00  0.1562500E-01
    1       -0.260606   1.000000
    2        2.615233   1.000000
    3        6.029561   1.000000
    4        6.118444   1.000000
    5       10.601819   0.000000
    6       12.451712   0.000000
    7       13.675383   0.000000
    8       14.117802   0.000000
 
  0.3125000E+00  0.1875000E+00  0.1875000E+00  0.1562500E-01
    1        2.051053   1.000000
    2        2.795302   1.000000
    3        3.824185   1.000000
    4        4.470914   1.000000
    5       11.529871   0.000000
    6       13.446761   0.000000
    7       13.757855   0.000000
    8       13.948634   0.000000
 
 -0.1875000E+00  0.1875000E+00  0.1875000E+00  0.7812500E-02
    1       -3.869514   1.000000
    2        2.864806   1.000000
    3        4.281698   1.000000
    4       10.693185   0.000000
    5       11.276945   0.000000
    6       14.046136   0.000000
    7       16.299121   0.000000
    8       16.822022   0.000000
 
  0.3125000E+00  0.3125000E+00  0.1875000E+00  0.7812500E-02
    1        1.012659   1.000000
    2        1.012659   1.000000
    3        5.908688   1.000000
    4        5.908689   1.000000
    5       11.853475   0.000000
    6       11.853477   0.000000
    7       13.665892   0.000000
    8       13.665897   0.000000
 
 -0.3125000E+00  0.3125000E+00  0.1875000E+00  0.1562500E-01
    1       -3.118323   1.000000
    2        1.228029   1.000000
    3        4.503924   1.000000
    4        8.661211   0.615595
    5       12.615316   0.000000
    6       15.528290   0.000000
    7       16.127630   0.000000
    8       16.910924   0.000000
 
 -0.1875000E+00  0.3125000E+00  0.1875000E+00  0.1562500E-01
    1       -2.901350   1.000000
    2        2.328527   1.000000
    3        3.835376   1.000000
    4        8.817328   0.208974
    5       11.417629   0.000000
    6       14.059760   0.000000
    7       16.066887   0.000000
    8       16.392770   0.000000
 
 -0.4375000E+00  0.4375000E+00  0.1875000E+00  0.1562500E-01
    1       -2.001190   1.000000
    2       -0.535165   1.000000
    3        5.514807   1.000000
    4        6.918125   1.000000
    5       13.661966   0.000000
    6       14.663228   0.000000
    7       16.226668   0.000000
    8       16.611111   0.000000
 
 -0.3125000E+00  0.4375000E+00  0.1875000E+00  0.3125000E-01
    1       -1.973270   1.000000
    2        0.884218   1.000000
    3        4.199281   1.000000
    4        6.942480   1.000000
    5       11.055960   0.000000
    6       15.374987   0.000000
    7       16.440804   0.000000
    8       17.891882   0.000000
 
 -0.1875000E+00  0.4375000E+00  0.1875000E+00  0.1562500E-01
    1       -1.144330   1.000000
    2        2.562022   1.000000
    3        4.110725   1.000000
    4        7.037155   1.000000
    5        7.943743   1.000000
    6       13.774833   0.000000
    7       15.180688   0.000000
    8       16.528521   0.000000
 
 -0.4375000E+00 -0.4375000E+00  0.1875000E+00  0.1562500E-01
    1       -0.701014   1.000000
    2       -0.687197   1.000000
    3        5.365998   1.000000
    4        5.387856   1.000000
    5       10.910928   0.000000
    6       16.046108   0.000000
    7       16.707402   0.000000
    8       17.026305   0.000000
 
 -0.3125000E+00 -0.4375000E+00  0.1875000E+00  0.3125000E-01
    1       -0.060134   1.000000
    2        1.322081   1.000000
    3        4.612988   1.000000
    4        5.880492   1.000000
    5        7.068303   1.000000
    6       13.957534   0.000000
    7       16.716296   0.000000
    8       17.764280   0.000000
 
 -0.1875000E+00 -0.4375000E+00  0.1875000E+00  0.1562500E-01
    1        1.296053   1.000000
    2        3.027655   1.000000
    3        4.187202   1.000000
    4        5.098334   1.000000
    5        7.292892   1.000000
    6       11.739086   0.000000
    7       13.059316   0.000000
    8       16.685089   0.000000
 
 -0.3125000E+00 -0.3125000E+00  0.1875000E+00  0.1562500E-01
    1        2.138322   1.000000
    2        2.604189   1.000000
    3        3.666216   1.000000
    4        5.791803   1.000000
    5        5.907455   1.000000
    6       11.985216   0.000000
    7       14.440004   0.000000
    8       15.255671   0.000000
 
 -0.1875000E+00 -0.3125000E+00  0.1875000E+00  0.1562500E-01
    1        0.273900   1.000000
    2        4.659581   1.000000
    3        5.590664   1.000000
    4        6.657814   1.000000
    5        7.459616   1.000000
    6       10.492214   0.000000
    7       11.543992   0.000000
    8       13.041999   0.000000
 
 -0.1875000E+00 -0.1875000E+00  0.1875000E+00  0.3906250E-02
    1       -1.923190   1.000000
    2        7.830715   1.000000
    3        7.830715   1.000000
    4        7.926546   1.000000
    5        8.147495   0.999957
    6        9.452330   0.000000
    7       11.360998   0.000000
    8       11.361001   0.000000
 
 -0.3125000E+00  0.3125000E+00  0.3125000E+00  0.7812500E-02
    1       -2.376905   1.000000
    2        1.372156   1.000000
    3        2.955034   1.000000
    4        6.594111   1.000000
    5       14.275201   0.000000
    6       15.157567   0.000000
    7       16.730374   0.000000
    8       18.141828   0.000000
 
 -0.4375000E+00  0.4375000E+00  0.3125000E+00  0.1562500E-01
    1       -1.281893   1.000000
    2        0.114910   1.000000
    3        3.478994   1.000000
    4        4.839524   1.000000
    5       14.606109   0.000000
    6       14.794167   0.000000
    7       17.710776   0.000000
    8       18.781393   0.000000
 
 -0.3125000E+00  0.4375000E+00  0.3125000E+00  0.1562500E-01
    1       -1.067817   1.000000
    2        1.205321   1.000000
    3        2.818008   1.000000
    4        5.037593   1.000000
    5       10.601362   0.000000
    6       17.543396   0.000000
    7       17.896482   0.000000
    8       18.910766   0.000000
 
 -0.4375000E+00 -0.4375000E+00  0.3125000E+00  0.1562500E-01
    1        0.127948   1.000000
    2        0.151917   1.000000
    3        3.501360   1.000000
    4        3.516065   1.000000
    5       10.440540   0.000000
    6       17.784433   0.000000
    7       19.061524   0.000000
    8       19.640264   0.000000
 
 -0.3125000E+00 -0.4375000E+00  0.3125000E+00  0.1562500E-01
    1        0.948910   1.000000
    2        1.818872   1.000000
    3        3.434058   1.000000
    4        4.274085   1.000000
    5        6.637485   1.000000
    6       15.632098   0.000000
    7       16.854648   0.000000
    8       18.039114   0.000000
 
 -0.3125000E+00 -0.3125000E+00  0.3125000E+00  0.3906250E-02
    1        2.355134   1.000000
    2        3.321465   1.000000
    3        4.063722   1.000000
    4        4.775558   1.000000
    5        4.775558   1.000000
    6       13.716721   0.000000
    7       14.258317   0.000000
    8       14.258321   0.000000
 
 -0.4375000E+00  0.4375000E+00  0.4375000E+00  0.7812500E-02
    1       -0.259376   1.000000
    2        0.617571   1.000000
    3        2.264160   1.000000
    4        3.129246   1.000000
    5       14.507051   0.000000
    6       14.544985   0.000000
    7       19.958241   0.000000
    8       20.727963   0.000000
 
 -0.4375000E+00 -0.4375000E+00  0.4375000E+00  0.3906250E-02
    1        0.808586   1.000000
    2        0.847477   1.000000
    3        2.471471   1.000000
    4        2.471471   1.000000
    5       10.276844   0.000000
    6       18.298640   0.000000
    7       20.237097   0.000000
    8       20.274109   0.000000
