 running on    8 total cores
 distrk:  each k-point on    8 cores,    1 groups
 distr:  one band on    1 cores,    8 groups
 using from now: INCAR     
 vasp.5.4.4.18Apr17-6-g9f103f2a35 (build Dec 09 2018 21:25:21) complex          
  
 POSCAR found type information on POSCAR  Si
 POSCAR found :  1 types and       2 ions
 scaLAPACK will be used

 ----------------------------------------------------------------------------- 
|                                                                             |
|           W    W    AA    RRRRR   N    N  II  N    N   GGGG   !!!           |
|           W    W   A  A   R    R  NN   N  II  NN   N  G    G  !!!           |
|           W    W  A    A  R    R  N N  N  II  N N  N  G       !!!           |
|           W WW W  AAAAAA  RRRRR   N  N N  II  N  N N  G  GGG   !            |
|           WW  WW  A    A  R   R   N   NN  II  N   NN  G    G                |
|           W    W  A    A  R    R  N    N  II  N    N   GGGG   !!!           |
|                                                                             |
|      For optimal performance we recommend to set                            |
|        NCORE= 4 - approx SQRT( number of cores)                             |
|      NCORE specifies how many cores store one orbital (NPAR=cpu/NCORE).     |
|      This setting can  greatly improve the performance of VASP for DFT.     |
|      The default,   NCORE=1            might be grossly inefficient         |
|      on modern multi-core architectures or massively parallel machines.     |
|      Do your own testing !!!!                                               |
|      Unfortunately you need to use the default for GW and RPA calculations. |
|      (for HF NCORE is supported but not extensively tested yet)             |
|                                                                             |
 ----------------------------------------------------------------------------- 

 LDA part: xc-table for Pade appr. of Perdew
 POSCAR, INCAR and KPOINTS ok, starting setup
 FFT: planning ...
 WAVECAR not read
 entering main loop
       N       E                     dE             d eps       ncg     rms          rms(c)
DAV:   1     0.112411842111E+01    0.11241E+01   -0.27086E+03   896   0.598E+02
DAV:   2    -0.101437443167E+02   -0.11268E+02   -0.10976E+02  1296   0.648E+01
DAV:   3    -0.102689327164E+02   -0.12519E+00   -0.12418E+00  1232   0.851E+00
DAV:   4    -0.102692676413E+02   -0.33492E-03   -0.33475E-03  1328   0.392E-01
DAV:   5    -0.102692680387E+02   -0.39741E-06   -0.39725E-06  1272   0.999E-03    0.154E+00
DAV:   6    -0.102629053998E+02    0.63626E-02   -0.36081E-03  1128   0.402E-01    0.957E-01
DAV:   7    -0.102584288003E+02    0.44766E-02   -0.94584E-03  1176   0.676E-01    0.503E-02
DAV:   8    -0.102583767442E+02    0.52056E-04   -0.37192E-04   600   0.140E-01
   1 F= -.10258377E+02 E0= -.10248177E+02  d E =-.102584E+02
 curvature:   0.00 expect dE= 0.000E+00 dE for cont linesearch  0.000E+00
 trial: gam= 0.00000 g(F)=  0.704E-48 g(S)=  0.000E+00 ort = 0.000E+00 (trialstep = 0.100E+01)
 search vector abs. value=  0.100E-09
 reached required accuracy - stopping structural energy minimisation
 writing wavefunctions
