<?xml version="1.0" encoding="ISO-8859-1"?>
<modeling>
 <generator>
  <i name="program" type="string">vasp </i>
  <i name="version" type="string">5.4.4.18Apr17-6-g9f103f2a35  </i>
  <i name="subversion" type="string">(build Dec 09 2018 21:25:21) complex            parallel </i>
  <i name="platform" type="string">IFC18.0.1.163_CrayMPICH7.7.0_MKL18.0.1.163 </i>
  <i name="date" type="string">2019 03 19 </i>
  <i name="time" type="string">14:01:35 </i>
 </generator>
 <incar>
  <i type="string" name="PREC">normal</i>
  <i type="int" name="IBRION">     2</i>
  <i name="EDIFF">      0.00040000</i>
  <i name="EDIFFG">     -0.01000000</i>
  <i type="int" name="NSW">    15</i>
  <i type="int" name="ISIF">     2</i>
  <i name="ENCUT">    350.00000000</i>
  <i type="int" name="NBANDS">     8</i>
  <i type="logical" name="LREAL"> F  </i>
  <i type="int" name="ISMEAR">     0</i>
  <i name="SIGMA">      0.20000000</i>
  <v type="int" name="KPOINT_BSE">    -1     0     0     0</v>
 </incar>
 <structure name="primitive_cell" >
  <crystal>
   <varray name="basis" >
    <v>       0.00000000       2.71500000       2.71500000 </v>
    <v>       2.71500000       0.00000000       2.71500000 </v>
    <v>       2.71500000       2.71500000       0.00000000 </v>
   </varray>
   <i name="volume">     40.02575175 </i>
   <varray name="rec_basis" >
    <v>      -0.18416206       0.18416206       0.18416206 </v>
    <v>       0.18416206      -0.18416206       0.18416206 </v>
    <v>       0.18416206       0.18416206      -0.18416206 </v>
   </varray>
  </crystal>
  <varray name="positions" >
   <v>      -0.50000000      -0.50000000      -0.50000000 </v>
   <v>      -0.25000000      -0.25000000      -0.25000000 </v>
  </varray>
 </structure>
 <varray name="primitive_index" >
  <v type="int" >        1 </v>
  <v type="int" >        2 </v>
 </varray>
 <kpoints>
  <generation param="Monkhorst-Pack">
   <v type="int" name="divisions">       5        5        5 </v>
   <v name="usershift">      0.00000000       0.00000000       0.00000000 </v>
   <v name="genvec1">      0.20000000       0.00000000      -0.00000000 </v>
   <v name="genvec2">      0.00000000       0.20000000       0.00000000 </v>
   <v name="genvec3">     -0.00000000      -0.00000000       0.20000000 </v>
   <v name="shift">      0.00000000       0.00000000       0.00000000 </v>
  </generation>
  <varray name="kpointlist" >
   <v>       0.00000000       0.00000000       0.00000000 </v>
   <v>       0.20000000       0.00000000       0.00000000 </v>
   <v>       0.40000000       0.00000000       0.00000000 </v>
   <v>       0.20000000       0.20000000       0.00000000 </v>
   <v>       0.40000000       0.20000000       0.00000000 </v>
   <v>      -0.40000000       0.20000000       0.00000000 </v>
   <v>      -0.20000000       0.20000000       0.00000000 </v>
   <v>       0.40000000       0.40000000       0.00000000 </v>
   <v>      -0.40000000       0.40000000       0.00000000 </v>
   <v>      -0.40000000       0.40000000       0.20000000 </v>
  </varray>
  <varray name="weights" >
   <v>       0.00800000 </v>
   <v>       0.06400000 </v>
   <v>       0.06400000 </v>
   <v>       0.04800000 </v>
   <v>       0.19200000 </v>
   <v>       0.19200000 </v>
   <v>       0.09600000 </v>
   <v>       0.04800000 </v>
   <v>       0.09600000 </v>
   <v>       0.19200000 </v>
  </varray>
 </kpoints>
 <parameters>
  <separator name="general" >
   <i type="string" name="SYSTEM">unknown system</i>
   <i type="logical" name="LCOMPAT"> F  </i>
  </separator>
  <separator name="electronic" >
   <i type="string" name="PREC">normal</i>
   <i name="ENMAX">    350.00000000</i>
   <i name="ENAUG">    322.06900000</i>
   <i name="EDIFF">      0.00040000</i>
   <i type="int" name="IALGO">    38</i>
   <i type="int" name="IWAVPR">    11</i>
   <i type="int" name="NBANDS">     8</i>
   <i name="NELECT">      8.00000000</i>
   <i type="int" name="TURBO">     0</i>
   <i type="int" name="IRESTART">     0</i>
   <i type="int" name="NREBOOT">     0</i>
   <i type="int" name="NMIN">     0</i>
   <i name="EREF">      0.00000000</i>
   <separator name="electronic smearing" >
    <i type="int" name="ISMEAR">     0</i>
    <i name="SIGMA">      0.20000000</i>
    <i name="KSPACING">      0.50000000</i>
    <i type="logical" name="KGAMMA"> T  </i>
   </separator>
   <separator name="electronic projectors" >
    <i type="logical" name="LREAL"> F  </i>
    <v name="ROPT">      0.00000000</v>
    <i type="int" name="LMAXPAW">  -100</i>
    <i type="int" name="LMAXMIX">     2</i>
    <i type="logical" name="NLSPLINE"> F  </i>
   </separator>
   <separator name="electronic startup" >
    <i type="int" name="ISTART">     0</i>
    <i type="int" name="ICHARG">     2</i>
    <i type="int" name="INIWAV">     1</i>
   </separator>
   <separator name="electronic spin" >
    <i type="int" name="ISPIN">     1</i>
    <i type="logical" name="LNONCOLLINEAR"> F  </i>
    <v name="MAGMOM">      1.00000000      1.00000000</v>
    <i name="NUPDOWN">     -1.00000000</i>
    <i type="logical" name="LSORBIT"> F  </i>
    <v name="SAXIS">      0.00000000      0.00000000      1.00000000</v>
    <i type="logical" name="LSPIRAL"> F  </i>
    <v name="QSPIRAL">      0.00000000      0.00000000      0.00000000</v>
    <i type="logical" name="LZEROZ"> F  </i>
   </separator>
   <separator name="electronic exchange-correlation" >
    <i type="logical" name="LASPH"> F  </i>
    <i type="logical" name="LMETAGGA"> F  </i>
   </separator>
   <separator name="electronic convergence" >
    <i type="int" name="NELM">    60</i>
    <i type="int" name="NELMDL">    -5</i>
    <i type="int" name="NELMIN">     2</i>
    <i name="ENINI">    350.00000000</i>
    <separator name="electronic convergence detail" >
     <i type="logical" name="LDIAG"> T  </i>
     <i type="logical" name="LSUBROT"> F  </i>
     <i name="WEIMIN">      0.00100000</i>
     <i name="EBREAK">      0.00001250</i>
     <i name="DEPER">      0.30000000</i>
     <i type="int" name="NRMM">     4</i>
     <i name="TIME">      0.40000000</i>
    </separator>
   </separator>
   <separator name="electronic mixer" >
    <i name="AMIX">      0.40000000</i>
    <i name="BMIX">      1.00000000</i>
    <i name="AMIN">      0.10000000</i>
    <i name="AMIX_MAG">      1.60000000</i>
    <i name="BMIX_MAG">      1.00000000</i>
    <separator name="electronic mixer details" >
     <i type="int" name="IMIX">     4</i>
     <i type="logical" name="MIXFIRST"> F  </i>
     <i type="int" name="MAXMIX">   -45</i>
     <i name="WC">    100.00000000</i>
     <i type="int" name="INIMIX">     1</i>
     <i type="int" name="MIXPRE">     1</i>
     <i type="int" name="MREMOVE">     5</i>
    </separator>
   </separator>
   <separator name="electronic dipolcorrection" >
    <i type="logical" name="LDIPOL"> F  </i>
    <i type="logical" name="LMONO"> F  </i>
    <i type="int" name="IDIPOL">     0</i>
    <i name="EPSILON">      1.00000000</i>
    <v name="DIPOL">   -100.00000000   -100.00000000   -100.00000000</v>
    <i name="EFIELD">      0.00000000</i>
   </separator>
  </separator>
  <separator name="grids" >
   <i type="int" name="NGX">    18</i>
   <i type="int" name="NGY">    18</i>
   <i type="int" name="NGZ">    18</i>
   <i type="int" name="NGXF">    36</i>
   <i type="int" name="NGYF">    36</i>
   <i type="int" name="NGZF">    36</i>
   <i type="logical" name="ADDGRID"> F  </i>
  </separator>
  <separator name="ionic" >
   <i type="int" name="NSW">    15</i>
   <i type="int" name="IBRION">     2</i>
   <i type="int" name="MDALGO">     0</i>
   <i type="int" name="ISIF">     2</i>
   <i name="PSTRESS">      0.00000000</i>
   <i name="EDIFFG">     -0.01000000</i>
   <i type="int" name="NFREE">     1</i>
   <i name="POTIM">      0.50000000</i>
   <i name="SMASS">     -3.00000000</i>
   <i name="SCALEE">      1.00000000</i>
  </separator>
  <separator name="ionic md" >
   <i name="TEBEG">      0.00010000</i>
   <i name="TEEND">      0.00010000</i>
   <i type="int" name="NBLOCK">     1</i>
   <i type="int" name="KBLOCK">    15</i>
   <i type="int" name="NPACO">   256</i>
   <i name="APACO">     16.00000000</i>
  </separator>
  <separator name="symmetry" >
   <i type="int" name="ISYM">     2</i>
   <i name="SYMPREC">      0.00001000</i>
  </separator>
  <separator name="dos" >
   <i type="int" name="LORBIT">     0</i>
   <v name="RWIGS">     -1.00000000</v>
   <i type="int" name="NEDOS">   301</i>
   <i name="EMIN">     10.00000000</i>
   <i name="EMAX">    -10.00000000</i>
   <i name="EFERMI">      0.00000000</i>
  </separator>
  <separator name="writing" >
   <i type="int" name="NWRITE">     2</i>
   <i type="logical" name="LWAVE"> T  </i>
   <i type="logical" name="LDOWNSAMPLE"> F  </i>
   <i type="logical" name="LCHARG"> T  </i>
   <i type="logical" name="LPARD"> F  </i>
   <i type="logical" name="LVTOT"> F  </i>
   <i type="logical" name="LVHAR"> F  </i>
   <i type="logical" name="LELF"> F  </i>
   <i type="logical" name="LOPTICS"> F  </i>
   <v name="STM">      0.00000000      0.00000000      0.00000000      0.00000000      0.00000000      0.00000000      0.00000000</v>
  </separator>
  <separator name="performance" >
   <i type="int" name="NPAR">     8</i>
   <i type="int" name="NSIM">     4</i>
   <i type="int" name="NBLK">    -1</i>
   <i type="logical" name="LPLANE"> T  </i>
   <i type="logical" name="LSCALAPACK"> T  </i>
   <i type="logical" name="LSCAAWARE"> F  </i>
   <i type="logical" name="LSCALU"> F  </i>
   <i type="logical" name="LASYNC"> F  </i>
   <i type="logical" name="LORBITALREAL"> F  </i>
  </separator>
  <separator name="miscellaneous" >
   <i type="int" name="IDIOT">     3</i>
   <i type="int" name="ISPECIAL">     0</i>
   <i type="logical" name="LMUSIC"> F  </i>
   <v name="POMASS">     28.08500000</v>
   <v name="DARWINR">      0.00000000</v>
   <v name="DARWINV">      1.00000000</v>
   <i type="logical" name="LCORR"> T  </i>
  </separator>
  <i type="logical" name="GGA_COMPAT"> T  </i>
  <i type="logical" name="LBERRY"> F  </i>
  <i type="int" name="ICORELEVEL">     0</i>
  <i type="logical" name="LDAU"> F  </i>
  <i type="int" name="I_CONSTRAINED_M">     0</i>
  <separator name="electronic exchange-correlation" >
   <i type="string" name="GGA">--</i>
   <i type="int" name="VOSKOWN">     0</i>
   <i type="logical" name="LHFCALC"> F  </i>
   <i type="string" name="PRECFOCK"></i>
   <i type="logical" name="LSYMGRAD"> F  </i>
   <i type="logical" name="LHFONE"> F  </i>
   <i type="logical" name="LRHFCALC"> F  </i>
   <i type="logical" name="LTHOMAS"> F  </i>
   <i type="logical" name="LMODELHF"> F  </i>
   <i name="ENCUT4O">     -1.00000000</i>
   <i type="int" name="EXXOEP">     0</i>
   <i type="int" name="FOURORBIT">     0</i>
   <i name="AEXX">      0.00000000</i>
   <i name="HFALPHA">      0.00000000</i>
   <i name="MCALPHA">      0.00000000</i>
   <i name="ALDAX">      1.00000000</i>
   <i name="AGGAX">      1.00000000</i>
   <i name="ALDAC">      1.00000000</i>
   <i name="AGGAC">      1.00000000</i>
   <i type="int" name="NKREDX">     1</i>
   <i type="int" name="NKREDY">     1</i>
   <i type="int" name="NKREDZ">     1</i>
   <i type="logical" name="SHIFTRED"> F  </i>
   <i type="logical" name="ODDONLY"> F  </i>
   <i type="logical" name="EVENONLY"> F  </i>
   <i type="int" name="LMAXFOCK">     0</i>
   <i type="int" name="NMAXFOCKAE">     0</i>
   <i type="logical" name="LFOCKAEDFT"> F  </i>
   <i name="HFSCREEN">      0.00000000</i>
   <i name="HFSCREENC">      0.00000000</i>
   <i type="int" name="NBANDSGWLOW">     0</i>
  </separator>
  <separator name="vdW DFT" >
   <i type="logical" name="LUSE_VDW"> F  </i>
   <i name="Zab_VDW">     -0.84910000</i>
   <i name="PARAM1">      0.12340000</i>
   <i name="PARAM2">      1.00000000</i>
   <i name="PARAM3">      0.00000000</i>
  </separator>
  <separator name="model GW" >
   <i type="int" name="MODEL_GW">     0</i>
   <i name="MODEL_EPS0">     12.00772552</i>
   <i name="MODEL_ALPHA">      1.00000000</i>
  </separator>
  <separator name="linear response parameters" >
   <i type="logical" name="LEPSILON"> F  </i>
   <i type="logical" name="LRPA"> F  </i>
   <i type="logical" name="LNABLA"> F  </i>
   <i type="logical" name="LVEL"> F  </i>
   <i type="int" name="KINTER">     0</i>
   <i name="CSHIFT">      0.10000000</i>
   <i name="OMEGAMAX">     -1.00000000</i>
   <i name="DEG_THRESHOLD">      0.00200000</i>
   <i name="RTIME">     -0.10000000</i>
   <i name="WPLASMAI">      0.00000000</i>
   <v name="DFIELD">      0.00000000      0.00000000      0.00000000</v>
   <v name="WPLASMA">      0.00000000      0.00000000      0.00000000      0.00000000      0.00000000      0.00000000      0.00000000      0.00000000      0.00000000</v>
  </separator>
  <separator name="orbital magnetization" >
   <i type="logical" name="NUCIND"> F  </i>
   <v name="MAGPOS">      0.00000000      0.00000000      0.00000000</v>
   <i type="logical" name="LNICSALL"> T  </i>
   <i type="logical" name="ORBITALMAG"> F  </i>
   <i type="logical" name="LMAGBLOCH"> F  </i>
   <i type="logical" name="LCHIMAG"> F  </i>
   <i type="logical" name="LGAUGE"> T  </i>
   <i type="int" name="MAGATOM">     0</i>
   <v name="MAGDIPOL">      0.00000000      0.00000000      0.00000000</v>
   <v name="AVECCONST">      0.00000000      0.00000000      0.00000000</v>
  </separator>
  <separator name="response functions" >
   <i type="logical" name="LADDER"> F  </i>
   <i type="logical" name="LRPAFORCE"> F  </i>
   <i type="logical" name="LFXC"> F  </i>
   <i type="logical" name="LHARTREE"> T  </i>
   <i type="int" name="IBSE">     0</i>
   <v type="int" name="KPOINT">    -1     0     0     0</v>
   <i type="logical" name="LTCTE"> F  </i>
   <i type="logical" name="LTETE"> F  </i>
   <i type="logical" name="LTRIPLET"> F  </i>
   <i type="logical" name="LFXCEPS"> F  </i>
   <i type="logical" name="LFXHEG"> F  </i>
   <i type="int" name="NATURALO">     2</i>
   <i type="logical" name="L2ORDER"> F  </i>
   <i type="logical" name="LMP2LT"> F  </i>
   <i type="logical" name="LUSEW"> F  </i>
   <i name="ENCUTGW">     -2.00000000</i>
   <i name="ENCUTGWSOFT">     -2.00000000</i>
   <i name="ENCUTLF">     -1.00000000</i>
   <i type="int" name="LMAXMP2">    -1</i>
   <i name="SCISSOR">      0.00000000</i>
   <i type="int" name="NOMEGA">     0</i>
   <i type="int" name="NOMEGAR">     0</i>
   <i type="int" name="NBANDSGW">    -1</i>
   <i type="int" name="NBANDSO">    -1</i>
   <i type="int" name="NBANDSV">    -1</i>
   <i type="int" name="NELM">     1</i>
   <i type="int" name="NELMHF">     1</i>
   <i type="int" name="DIM">     3</i>
   <i type="int" name="ANTIRES">     0</i>
   <i name="OMEGAMAX">    -30.00000000</i>
   <i name="OMEGAMIN">    -30.00000000</i>
   <i name="OMEGATL">   -200.00000000</i>
   <i type="int" name="OMEGAGRID">   140</i>
   <i name="CSHIFT">     -0.10000000</i>
   <i type="logical" name="SELFENERGY"> F  </i>
   <i type="logical" name="LSPECTRAL"> F  </i>
   <i type="logical" name="LSPECTRALGW"> F  </i>
   <i type="logical" name="LSINGLES"> F  </i>
   <i type="logical" name="LFERMIGW"> F  </i>
   <i type="logical" name="ODDONLYGW"> F  </i>
   <i type="logical" name="EVENONLYGW"> F  </i>
   <i type="int" name="NKREDLFX">     1</i>
   <i type="int" name="NKREDLFY">     1</i>
   <i type="int" name="NKREDLFZ">     1</i>
   <i type="int" name="MAXMEM">  2800</i>
   <i type="int" name="TELESCOPE">     0</i>
   <i type="int" name="TAUPAR">     1</i>
   <i type="int" name="OMEGAPAR">    -1</i>
   <i name="LAMBDA">      1.00000000</i>
  </separator>
  <separator name="External order field" >
   <i name="OFIELD_KAPPA">      0.00000000</i>
   <v name="OFIELD_K">      0.00000000      0.00000000      0.00000000</v>
   <i name="OFIELD_Q6_NEAR">      0.00000000</i>
   <i name="OFIELD_Q6_FAR">      0.00000000</i>
   <i name="OFIELD_A">      0.00000000</i>
  </separator>
 </parameters>
 <atominfo>
  <atoms>       2 </atoms>
  <types>       1 </types>
  <array name="atoms" >
   <dimension dim="1">ion</dimension>
   <field type="string">element</field>
   <field type="int">atomtype</field>
   <set>
    <rc><c>Si</c><c>   1</c></rc>
    <rc><c>Si</c><c>   1</c></rc>
   </set>
  </array>
  <array name="atomtypes" >
   <dimension dim="1">type</dimension>
   <field type="int">atomspertype</field>
   <field type="string">element</field>
   <field>mass</field>
   <field>valence</field>
   <field type="string">pseudopotential</field>
   <set>
    <rc><c>   2</c><c>Si</c><c>     28.08500000</c><c>      4.00000000</c><c> PAW_PBE Si 05Jan2001                   </c></rc>
   </set>
  </array>
 </atominfo>
 <structure name="initialpos" >
  <crystal>
   <varray name="basis" >
    <v>       0.00000000       2.71500000       2.71500000 </v>
    <v>       2.71500000       0.00000000       2.71500000 </v>
    <v>       2.71500000       2.71500000       0.00000000 </v>
   </varray>
   <i name="volume">     40.02575175 </i>
   <varray name="rec_basis" >
    <v>      -0.18416206       0.18416206       0.18416206 </v>
    <v>       0.18416206      -0.18416206       0.18416206 </v>
    <v>       0.18416206       0.18416206      -0.18416206 </v>
   </varray>
  </crystal>
  <varray name="positions" >
   <v>       0.50000000       0.50000000       0.50000000 </v>
   <v>       0.75000000       0.75000000       0.75000000 </v>
  </varray>
 </structure>
 <calculation>
  <scstep>
   <time name="dav">    0.12    0.14</time>
   <time name="total">    0.16    0.21</time>
   <energy>
    <i name="alphaZ">      3.36414203 </i>
    <i name="ewald">   -228.56352493 </i>
    <i name="hartreedc">    -11.00108243 </i>
    <i name="XCdc">    -18.60185131 </i>
    <i name="pawpsdc">     65.95520812 </i>
    <i name="pawaedc">    -30.76852678 </i>
    <i name="eentropy">     -0.02600003 </i>
    <i name="bandstr">     16.84599158 </i>
    <i name="atom">    206.13125414 </i>
    <i name="e_fr_energy">      3.33561038 </i>
    <i name="e_wo_entrp">      3.36161041 </i>
    <i name="e_0_energy">      3.34861040 </i>
   </energy>
  </scstep>
  <scstep>
   <time name="dav">    0.19    0.21</time>
   <time name="total">    0.20    0.21</time>
   <energy>
    <i name="e_fr_energy">    -10.81410011 </i>
    <i name="e_wo_entrp">    -10.81403101 </i>
    <i name="e_0_energy">    -10.81406556 </i>
   </energy>
  </scstep>
  <scstep>
   <time name="dav">    0.12    0.14</time>
   <time name="total">    0.13    0.14</time>
   <energy>
    <i name="e_fr_energy">    -10.96710078 </i>
    <i name="e_wo_entrp">    -10.96704544 </i>
    <i name="e_0_energy">    -10.96707311 </i>
   </energy>
  </scstep>
  <scstep>
   <time name="dav">    0.20    0.21</time>
   <time name="total">    0.20    0.21</time>
   <energy>
    <i name="e_fr_energy">    -10.96785345 </i>
    <i name="e_wo_entrp">    -10.96779816 </i>
    <i name="e_0_energy">    -10.96782580 </i>
   </energy>
  </scstep>
  <scstep>
   <time name="dav">    0.12    0.13</time>
   <time name="total">    0.14    0.15</time>
   <energy>
    <i name="e_fr_energy">    -10.96785370 </i>
    <i name="e_wo_entrp">    -10.96779841 </i>
    <i name="e_0_energy">    -10.96782605 </i>
   </energy>
  </scstep>
  <scstep>
   <time name="dav">    0.13    0.13</time>
   <time name="total">    0.19    0.20</time>
   <energy>
    <i name="e_fr_energy">    -10.83646338 </i>
    <i name="e_wo_entrp">    -10.83621274 </i>
    <i name="e_0_energy">    -10.83633806 </i>
   </energy>
  </scstep>
  <scstep>
   <time name="dav">    0.12    0.12</time>
   <time name="total">    0.18    0.19</time>
   <energy>
    <i name="e_fr_energy">    -10.77664283 </i>
    <i name="e_wo_entrp">    -10.77548088 </i>
    <i name="e_0_energy">    -10.77606185 </i>
   </energy>
  </scstep>
  <scstep>
   <time name="dav">    0.12    0.12</time>
   <time name="total">    0.18    0.19</time>
   <energy>
    <i name="e_fr_energy">    -10.77818719 </i>
    <i name="e_wo_entrp">    -10.77721489 </i>
    <i name="e_0_energy">    -10.77770104 </i>
   </energy>
  </scstep>
  <scstep>
   <time name="dav">    0.11    0.11</time>
   <time name="total">    0.14    0.15</time>
   <energy>
    <i name="alphaZ">      3.36414203 </i>
    <i name="ewald">   -228.56352493 </i>
    <i name="hartreedc">    -15.04125471 </i>
    <i name="XCdc">    -17.94428389 </i>
    <i name="pawpsdc">     74.45082638 </i>
    <i name="pawaedc">    -39.49224074 </i>
    <i name="eentropy">     -0.00097109 </i>
    <i name="bandstr">      6.31776878 </i>
    <i name="atom">    206.13125414 </i>
    <i name="e_fr_energy">    -10.77828402 </i>
    <i name="e_wo_entrp">    -10.77731293 </i>
    <i name="e_0_energy">    -10.77779848 </i>
   </energy>
  </scstep>
  <structure>
   <crystal>
    <varray name="basis" >
     <v>       0.00000000       2.71500000       2.71500000 </v>
     <v>       2.71500000       0.00000000       2.71500000 </v>
     <v>       2.71500000       2.71500000       0.00000000 </v>
    </varray>
    <i name="volume">     40.02575175 </i>
    <varray name="rec_basis" >
     <v>      -0.18416206       0.18416206       0.18416206 </v>
     <v>       0.18416206      -0.18416206       0.18416206 </v>
     <v>       0.18416206       0.18416206      -0.18416206 </v>
    </varray>
   </crystal>
   <varray name="positions" >
    <v>       0.50000000       0.50000000       0.50000000 </v>
    <v>       0.75000000       0.75000000       0.75000000 </v>
   </varray>
  </structure>
  <varray name="forces" >
   <v>      -0.00000000      -0.00000000       0.00000000 </v>
   <v>       0.00000000       0.00000000      -0.00000000 </v>
  </varray>
  <varray name="stress" >
   <v>      21.62052018      -0.00000000       0.00000000 </v>
   <v>      -0.00000000      21.62052018       0.00000000 </v>
   <v>       0.00000000       0.00000000      21.62052018 </v>
  </varray>
  <energy>
   <i name="e_fr_energy">    -10.77828402 </i>
   <i name="e_wo_entrp">    -10.77779848 </i>
   <i name="e_0_energy">     -0.00097109 </i>
  </energy>
  <time name="totalsc">    2.41    3.91</time>
  <eigenvalues>
   <array>
    <dimension dim="1">band</dimension>
    <dimension dim="2">kpoint</dimension>
    <dimension dim="3">spin</dimension>
    <field>eigene</field>
    <field>occ</field>
    <set>
     <set comment="spin 1">
      <set comment="kpoint 1">
       <r>   -6.1172    1.0000 </r>
       <r>    5.8472    0.9702 </r>
       <r>    5.8472    0.9702 </r>
       <r>    5.8472    0.9702 </r>
       <r>    8.4071    0.0000 </r>
       <r>    8.4071    0.0000 </r>
       <r>    8.4071    0.0000 </r>
       <r>    9.2251    0.0000 </r>
      </set>
      <set comment="kpoint 2">
       <r>   -5.5994    1.0000 </r>
       <r>    2.8383    1.0000 </r>
       <r>    5.2674    1.0000 </r>
       <r>    5.2674    1.0000 </r>
       <r>    8.0683    0.0000 </r>
       <r>    9.2086    0.0000 </r>
       <r>    9.2086    0.0000 </r>
       <r>   11.9069    0.0000 </r>
      </set>
      <set comment="kpoint 3">
       <r>   -4.2356    1.0000 </r>
       <r>   -0.4267    1.0000 </r>
       <r>    4.7198    1.0000 </r>
       <r>    4.7198    1.0000 </r>
       <r>    7.4676    0.0000 </r>
       <r>    9.2581    0.0000 </r>
       <r>    9.2581    0.0000 </r>
       <r>   13.6802    0.0000 </r>
      </set>
      <set comment="kpoint 4">
       <r>   -5.4212    1.0000 </r>
       <r>    3.2264    1.0000 </r>
       <r>    4.3575    1.0000 </r>
       <r>    4.3575    1.0000 </r>
       <r>    7.3041    0.0000 </r>
       <r>    9.7331    0.0000 </r>
       <r>   10.7419    0.0000 </r>
       <r>   10.7419    0.0000 </r>
      </set>
      <set comment="kpoint 5">
       <r>   -4.2790    1.0000 </r>
       <r>    0.5390    1.0000 </r>
       <r>    3.2212    1.0000 </r>
       <r>    3.8494    1.0000 </r>
       <r>    7.6166    0.0000 </r>
       <r>    9.9299    0.0000 </r>
       <r>   10.7834    0.0000 </r>
       <r>   11.2821    0.0000 </r>
      </set>
      <set comment="kpoint 6">
       <r>   -3.3936    1.0000 </r>
       <r>   -0.8560    1.0000 </r>
       <r>    2.4117    1.0000 </r>
       <r>    4.1323    1.0000 </r>
       <r>    7.8999    0.0000 </r>
       <r>   10.4528    0.0000 </r>
       <r>   10.6461    0.0000 </r>
       <r>   13.4162    0.0000 </r>
      </set>
      <set comment="kpoint 7">
       <r>   -4.7673    1.0000 </r>
       <r>    1.3725    1.0000 </r>
       <r>    2.8432    1.0000 </r>
       <r>    5.0014    1.0000 </r>
       <r>    8.7393    0.0000 </r>
       <r>    9.8388    0.0000 </r>
       <r>   10.1575    0.0000 </r>
       <r>   11.5894    0.0000 </r>
      </set>
      <set comment="kpoint 8">
       <r>   -3.4028    1.0000 </r>
       <r>   -0.3295    1.0000 </r>
       <r>    3.1506    1.0000 </r>
       <r>    3.1506    1.0000 </r>
       <r>    6.4208    0.0149 </r>
       <r>    7.1505    0.0000 </r>
       <r>   14.3626    0.0000 </r>
       <r>   14.3626    0.0000 </r>
      </set>
      <set comment="kpoint 9">
       <r>   -2.1964    1.0000 </r>
       <r>   -1.5916    1.0000 </r>
       <r>    1.7783    1.0000 </r>
       <r>    3.2695    1.0000 </r>
       <r>    6.8691    0.0000 </r>
       <r>    8.9946    0.0000 </r>
       <r>   13.9484    0.0000 </r>
       <r>   14.5222    0.0000 </r>
      </set>
      <set comment="kpoint 10">
       <r>   -2.9629    1.0000 </r>
       <r>   -0.7133    1.0000 </r>
       <r>    1.8633    1.0000 </r>
       <r>    2.8515    1.0000 </r>
       <r>    9.2392    0.0000 </r>
       <r>    9.6116    0.0000 </r>
       <r>   10.2812    0.0000 </r>
       <r>   13.6358    0.0000 </r>
      </set>
     </set>
    </set>
   </array>
  </eigenvalues>
  <separator name="orbital magnetization" >
   <v name="MAGDIPOLOUT">      0.00000000      0.00000000      0.00000000</v>
  </separator>
  <dos>
   <i name="efermi">      6.11359574 </i>
   <total>
    <array>
     <dimension dim="1">gridpoints</dimension>
     <dimension dim="2">spin</dimension>
     <field>energy</field>
     <field>total</field>
     <field>integrated</field>
     <set>
      <set comment="spin 1">
       <r>    -8.1172     0.0000     0.0000 </r>
       <r>    -8.0351     0.0000     0.0000 </r>
       <r>    -7.9530     0.0000     0.0000 </r>
       <r>    -7.8708     0.0000     0.0000 </r>
       <r>    -7.7887     0.0000     0.0000 </r>
       <r>    -7.7066     0.0000     0.0000 </r>
       <r>    -7.6244     0.0000     0.0000 </r>
       <r>    -7.5423     0.0000     0.0000 </r>
       <r>    -7.4602     0.0000     0.0000 </r>
       <r>    -7.3780     0.0000     0.0000 </r>
       <r>    -7.2959     0.0000     0.0000 </r>
       <r>    -7.2138     0.0000     0.0000 </r>
       <r>    -7.1316     0.0000     0.0000 </r>
       <r>    -7.0495     0.0000     0.0000 </r>
       <r>    -6.9674     0.0000     0.0000 </r>
       <r>    -6.8852     0.0000     0.0000 </r>
       <r>    -6.8031     0.0000     0.0000 </r>
       <r>    -6.7210     0.0000     0.0000 </r>
       <r>    -6.6389     0.0000     0.0000 </r>
       <r>    -6.5567     0.0002     0.0000 </r>
       <r>    -6.4746     0.0009     0.0001 </r>
       <r>    -6.3925     0.0039     0.0004 </r>
       <r>    -6.3103     0.0117     0.0014 </r>
       <r>    -6.2282     0.0254     0.0035 </r>
       <r>    -6.1461     0.0396     0.0067 </r>
       <r>    -6.0639     0.0451     0.0104 </r>
       <r>    -5.9818     0.0404     0.0137 </r>
       <r>    -5.8997     0.0422     0.0172 </r>
       <r>    -5.8175     0.0808     0.0238 </r>
       <r>    -5.7354     0.1812     0.0387 </r>
       <r>    -5.6533     0.3301     0.0658 </r>
       <r>    -5.5711     0.4647     0.1040 </r>
       <r>    -5.4890     0.5170     0.1465 </r>
       <r>    -5.4069     0.4664     0.1848 </r>
       <r>    -5.3248     0.3425     0.2129 </r>
       <r>    -5.2426     0.2010     0.2294 </r>
       <r>    -5.1605     0.0957     0.2373 </r>
       <r>    -5.0784     0.0567     0.2419 </r>
       <r>    -4.9962     0.0983     0.2500 </r>
       <r>    -4.9141     0.2278     0.2687 </r>
       <r>    -4.8320     0.4074     0.3022 </r>
       <r>    -4.7498     0.5289     0.3456 </r>
       <r>    -4.6677     0.5050     0.3871 </r>
       <r>    -4.5856     0.3955     0.4196 </r>
       <r>    -4.5034     0.3874     0.4514 </r>
       <r>    -4.4213     0.6295     0.5031 </r>
       <r>    -4.3392     1.0609     0.5902 </r>
       <r>    -4.2570     1.3851     0.7040 </r>
       <r>    -4.1749     1.3229     0.8126 </r>
       <r>    -4.0928     0.9169     0.8879 </r>
       <r>    -4.0107     0.4608     0.9258 </r>
       <r>    -3.9285     0.1683     0.9396 </r>
       <r>    -3.8464     0.0481     0.9435 </r>
       <r>    -3.7643     0.0310     0.9461 </r>
       <r>    -3.6821     0.0994     0.9542 </r>
       <r>    -3.6000     0.3085     0.9796 </r>
       <r>    -3.5179     0.6977     1.0369 </r>
       <r>    -3.4357     1.1385     1.1304 </r>
       <r>    -3.3536     1.3463     1.2410 </r>
       <r>    -3.2715     1.1841     1.3382 </r>
       <r>    -3.1893     0.8762     1.4102 </r>
       <r>    -3.1072     0.7659     1.4731 </r>
       <r>    -3.0251     0.9202     1.5487 </r>
       <r>    -2.9429     1.0785     1.6372 </r>
       <r>    -2.8608     0.9793     1.7177 </r>
       <r>    -2.7787     0.6495     1.7710 </r>
       <r>    -2.6966     0.3114     1.7966 </r>
       <r>    -2.6144     0.1105     1.8057 </r>
       <r>    -2.5323     0.0435     1.8092 </r>
       <r>    -2.4502     0.0693     1.8149 </r>
       <r>    -2.3680     0.1784     1.8296 </r>
       <r>    -2.2859     0.3529     1.8586 </r>
       <r>    -2.2038     0.5045     1.9000 </r>
       <r>    -2.1216     0.5198     1.9427 </r>
       <r>    -2.0395     0.3871     1.9745 </r>
       <r>    -1.9574     0.2156     1.9922 </r>
       <r>    -1.8752     0.1205     2.0021 </r>
       <r>    -1.7931     0.1498     2.0144 </r>
       <r>    -1.7110     0.2901     2.0382 </r>
       <r>    -1.6288     0.4608     2.0761 </r>
       <r>    -1.5467     0.5340     2.1199 </r>
       <r>    -1.4646     0.4463     2.1566 </r>
       <r>    -1.3824     0.2692     2.1787 </r>
       <r>    -1.3003     0.1201     2.1885 </r>
       <r>    -1.2182     0.0576     2.1933 </r>
       <r>    -1.1361     0.1009     2.2016 </r>
       <r>    -1.0539     0.2987     2.2261 </r>
       <r>    -0.9718     0.7081     2.2843 </r>
       <r>    -0.8897     1.2718     2.3887 </r>
       <r>    -0.8075     1.7563     2.5330 </r>
       <r>    -0.7254     1.9003     2.6890 </r>
       <r>    -0.6433     1.6519     2.8247 </r>
       <r>    -0.5611     1.2268     2.9255 </r>
       <r>    -0.4790     0.8984     2.9993 </r>
       <r>    -0.3969     0.7401     3.0600 </r>
       <r>    -0.3147     0.6280     3.1116 </r>
       <r>    -0.2326     0.4591     3.1493 </r>
       <r>    -0.1505     0.2624     3.1709 </r>
       <r>    -0.0683     0.1132     3.1802 </r>
       <r>     0.0138     0.0368     3.1832 </r>
       <r>     0.0959     0.0122     3.1842 </r>
       <r>     0.1780     0.0225     3.1860 </r>
       <r>     0.2602     0.0889     3.1933 </r>
       <r>     0.3423     0.2702     3.2155 </r>
       <r>     0.4244     0.5928     3.2642 </r>
       <r>     0.5066     0.9367     3.3412 </r>
       <r>     0.5887     1.0663     3.4287 </r>
       <r>     0.6708     0.8744     3.5005 </r>
       <r>     0.7530     0.5166     3.5430 </r>
       <r>     0.8351     0.2200     3.5610 </r>
       <r>     0.9172     0.0687     3.5667 </r>
       <r>     0.9994     0.0231     3.5686 </r>
       <r>     1.0815     0.0390     3.5718 </r>
       <r>     1.1636     0.1173     3.5814 </r>
       <r>     1.2458     0.2697     3.6036 </r>
       <r>     1.3279     0.4487     3.6404 </r>
       <r>     1.4100     0.5458     3.6852 </r>
       <r>     1.4921     0.5163     3.7277 </r>
       <r>     1.5743     0.4846     3.7674 </r>
       <r>     1.6564     0.6470     3.8206 </r>
       <r>     1.7385     1.0441     3.9063 </r>
       <r>     1.8207     1.4445     4.0250 </r>
       <r>     1.9028     1.5213     4.1499 </r>
       <r>     1.9849     1.1920     4.2478 </r>
       <r>     2.0671     0.7102     4.3062 </r>
       <r>     2.1492     0.4003     4.3390 </r>
       <r>     2.2313     0.4122     4.3729 </r>
       <r>     2.3135     0.6866     4.4293 </r>
       <r>     2.3956     0.9951     4.5110 </r>
       <r>     2.4777     1.0855     4.6002 </r>
       <r>     2.5599     0.9522     4.6784 </r>
       <r>     2.6420     0.8990     4.7522 </r>
       <r>     2.7241     1.2030     4.8510 </r>
       <r>     2.8062     1.7398     4.9939 </r>
       <r>     2.8884     2.0754     5.1644 </r>
       <r>     2.9705     2.0204     5.3303 </r>
       <r>     3.0526     1.9063     5.4869 </r>
       <r>     3.1348     2.0846     5.6581 </r>
       <r>     3.2169     2.3657     5.8524 </r>
       <r>     3.2990     2.2629     6.0382 </r>
       <r>     3.3812     1.6563     6.1743 </r>
       <r>     3.4633     0.9103     6.2490 </r>
       <r>     3.5454     0.4174     6.2833 </r>
       <r>     3.6276     0.3045     6.3083 </r>
       <r>     3.7097     0.5107     6.3503 </r>
       <r>     3.7918     0.8777     6.4224 </r>
       <r>     3.8740     1.1831     6.5195 </r>
       <r>     3.9561     1.3059     6.6268 </r>
       <r>     4.0382     1.3366     6.7366 </r>
       <r>     4.1204     1.3748     6.8495 </r>
       <r>     4.2025     1.3566     6.9609 </r>
       <r>     4.2846     1.2073     7.0600 </r>
       <r>     4.3667     0.9719     7.1399 </r>
       <r>     4.4489     0.7383     7.2005 </r>
       <r>     4.5310     0.5944     7.2493 </r>
       <r>     4.6131     0.6091     7.2993 </r>
       <r>     4.6953     0.7342     7.3596 </r>
       <r>     4.7774     0.8214     7.4271 </r>
       <r>     4.8595     0.8072     7.4934 </r>
       <r>     4.9417     0.7664     7.5563 </r>
       <r>     5.0238     0.7616     7.6189 </r>
       <r>     5.1059     0.7864     7.6835 </r>
       <r>     5.1881     0.8281     7.7515 </r>
       <r>     5.2702     0.8400     7.8205 </r>
       <r>     5.3523     0.7317     7.8806 </r>
       <r>     5.4345     0.4979     7.9215 </r>
       <r>     5.5166     0.2554     7.9424 </r>
       <r>     5.5987     0.1095     7.9514 </r>
       <r>     5.6808     0.0714     7.9573 </r>
       <r>     5.7630     0.0958     7.9652 </r>
       <r>     5.8451     0.1283     7.9757 </r>
       <r>     5.9272     0.1290     7.9863 </r>
       <r>     6.0094     0.0953     7.9941 </r>
       <r>     6.0915     0.0584     7.9989 </r>
       <r>     6.1736     0.0539     8.0034 </r>
       <r>     6.2558     0.1001     8.0116 </r>
       <r>     6.3379     0.1849     8.0268 </r>
       <r>     6.4200     0.2576     8.0479 </r>
       <r>     6.5022     0.2661     8.0698 </r>
       <r>     6.5843     0.2260     8.0883 </r>
       <r>     6.6664     0.2230     8.1067 </r>
       <r>     6.7486     0.3217     8.1331 </r>
       <r>     6.8307     0.4796     8.1725 </r>
       <r>     6.9128     0.5792     8.2200 </r>
       <r>     6.9949     0.5672     8.2666 </r>
       <r>     7.0771     0.5162     8.3090 </r>
       <r>     7.1592     0.5146     8.3513 </r>
       <r>     7.2413     0.5725     8.3983 </r>
       <r>     7.3235     0.6728     8.4536 </r>
       <r>     7.4056     0.8374     8.5223 </r>
       <r>     7.4877     1.0837     8.6113 </r>
       <r>     7.5699     1.3351     8.7210 </r>
       <r>     7.6520     1.4546     8.8405 </r>
       <r>     7.7341     1.4263     8.9576 </r>
       <r>     7.8163     1.3926     9.0720 </r>
       <r>     7.8984     1.4131     9.1880 </r>
       <r>     7.9805     1.3532     9.2992 </r>
       <r>     8.0627     1.1066     9.3901 </r>
       <r>     8.1448     0.7521     9.4518 </r>
       <r>     8.2269     0.4421     9.4881 </r>
       <r>     8.3090     0.2605     9.5095 </r>
       <r>     8.3912     0.1962     9.5256 </r>
       <r>     8.4733     0.2010     9.5422 </r>
       <r>     8.5554     0.2620     9.5637 </r>
       <r>     8.6376     0.3931     9.5960 </r>
       <r>     8.7197     0.5594     9.6419 </r>
       <r>     8.8018     0.6874     9.6984 </r>
       <r>     8.8840     0.7811     9.7625 </r>
       <r>     8.9661     0.9567     9.8411 </r>
       <r>     9.0482     1.3479     9.9518 </r>
       <r>     9.1304     1.9654    10.1132 </r>
       <r>     9.2125     2.5440    10.3222 </r>
       <r>     9.2946     2.6501    10.5398 </r>
       <r>     9.3768     2.1873    10.7195 </r>
       <r>     9.4589     1.6068    10.8514 </r>
       <r>     9.5410     1.3796    10.9647 </r>
       <r>     9.6232     1.5061    11.0884 </r>
       <r>     9.7053     1.7159    11.2294 </r>
       <r>     9.7874     1.8724    11.3832 </r>
       <r>     9.8695     1.9654    11.5446 </r>
       <r>     9.9517     1.9355    11.7035 </r>
       <r>    10.0338     1.7774    11.8495 </r>
       <r>    10.1159     1.6656    11.9863 </r>
       <r>    10.1981     1.7536    12.1303 </r>
       <r>    10.2802     1.9664    12.2918 </r>
       <r>    10.3623     2.1300    12.4668 </r>
       <r>    10.4445     2.1973    12.6473 </r>
       <r>    10.5266     2.2701    12.8337 </r>
       <r>    10.6087     2.4494    13.0349 </r>
       <r>    10.6909     2.6514    13.2526 </r>
       <r>    10.7730     2.5967    13.4659 </r>
       <r>    10.8551     2.1038    13.6387 </r>
       <r>    10.9373     1.3547    13.7500 </r>
       <r>    11.0194     0.7491    13.8115 </r>
       <r>    11.1015     0.5514    13.8568 </r>
       <r>    11.1836     0.7296    13.9167 </r>
       <r>    11.2658     1.0187    14.0004 </r>
       <r>    11.3479     1.1307    14.0932 </r>
       <r>    11.4300     1.0109    14.1763 </r>
       <r>    11.5122     0.8317    14.2446 </r>
       <r>    11.5943     0.7131    14.3031 </r>
       <r>    11.6764     0.6180    14.3539 </r>
       <r>    11.7586     0.5180    14.3964 </r>
       <r>    11.8407     0.4532    14.4337 </r>
       <r>    11.9228     0.4177    14.4680 </r>
       <r>    12.0050     0.3467    14.4964 </r>
       <r>    12.0871     0.2258    14.5150 </r>
       <r>    12.1692     0.1088    14.5239 </r>
       <r>    12.2514     0.0380    14.5270 </r>
       <r>    12.3335     0.0096    14.5278 </r>
       <r>    12.4156     0.0017    14.5280 </r>
       <r>    12.4977     0.0002    14.5280 </r>
       <r>    12.5799     0.0000    14.5280 </r>
       <r>    12.6620     0.0000    14.5280 </r>
       <r>    12.7441     0.0000    14.5280 </r>
       <r>    12.8263     0.0001    14.5280 </r>
       <r>    12.9084     0.0007    14.5281 </r>
       <r>    12.9905     0.0054    14.5285 </r>
       <r>    13.0727     0.0294    14.5309 </r>
       <r>    13.1548     0.1171    14.5405 </r>
       <r>    13.2369     0.3391    14.5684 </r>
       <r>    13.3191     0.7260    14.6280 </r>
       <r>    13.4012     1.1877    14.7256 </r>
       <r>    13.4833     1.5716    14.8546 </r>
       <r>    13.5655     1.7980    15.0023 </r>
       <r>    13.6476     1.8323    15.1528 </r>
       <r>    13.7297     1.6327    15.2869 </r>
       <r>    13.8118     1.2758    15.3917 </r>
       <r>    13.8940     0.9511    15.4698 </r>
       <r>    13.9761     0.7341    15.5301 </r>
       <r>    14.0582     0.5602    15.5761 </r>
       <r>    14.1404     0.4237    15.6109 </r>
       <r>    14.2225     0.4164    15.6451 </r>
       <r>    14.3046     0.5737    15.6922 </r>
       <r>    14.3868     0.7924    15.7573 </r>
       <r>    14.4689     0.9139    15.8324 </r>
       <r>    14.5510     0.8475    15.9020 </r>
       <r>    14.6332     0.6228    15.9531 </r>
       <r>    14.7153     0.3549    15.9823 </r>
       <r>    14.7974     0.1531    15.9948 </r>
       <r>    14.8796     0.0491    15.9989 </r>
       <r>    14.9617     0.0115    15.9998 </r>
       <r>    15.0438     0.0020    16.0000 </r>
       <r>    15.1260     0.0002    16.0000 </r>
       <r>    15.2081     0.0000    16.0000 </r>
       <r>    15.2902     0.0000    16.0000 </r>
       <r>    15.3723     0.0000    16.0000 </r>
       <r>    15.4545     0.0000    16.0000 </r>
       <r>    15.5366     0.0000    16.0000 </r>
       <r>    15.6187     0.0000    16.0000 </r>
       <r>    15.7009     0.0000    16.0000 </r>
       <r>    15.7830     0.0000    16.0000 </r>
       <r>    15.8651     0.0000    16.0000 </r>
       <r>    15.9473     0.0000    16.0000 </r>
       <r>    16.0294     0.0000    16.0000 </r>
       <r>    16.1115     0.0000    16.0000 </r>
       <r>    16.1937     0.0000    16.0000 </r>
       <r>    16.2758     0.0000    16.0000 </r>
       <r>    16.3579     0.0000    16.0000 </r>
       <r>    16.4401     0.0000    16.0000 </r>
       <r>    16.5222     0.0000    16.0000 </r>
      </set>
     </set>
    </array>
   </total>
  </dos>
 </calculation>
 <structure name="finalpos" >
  <crystal>
   <varray name="basis" >
    <v>       0.00000000       2.71500000       2.71500000 </v>
    <v>       2.71500000       0.00000000       2.71500000 </v>
    <v>       2.71500000       2.71500000       0.00000000 </v>
   </varray>
   <i name="volume">     40.02575175 </i>
   <varray name="rec_basis" >
    <v>      -0.18416206       0.18416206       0.18416206 </v>
    <v>       0.18416206      -0.18416206       0.18416206 </v>
    <v>       0.18416206       0.18416206      -0.18416206 </v>
   </varray>
  </crystal>
  <varray name="positions" >
   <v>       0.50000000       0.50000000       0.50000000 </v>
   <v>       0.75000000       0.75000000       0.75000000 </v>
  </varray>
 </structure>
</modeling>
