unknown system                          
   1.00000000000000     
     0.000000    2.760887    2.760887
     2.760887    0.000000    2.760887
     2.760887    2.760887    0.000000
   Si
     2
Direct
  0.500000  0.500000  0.500000
  0.750000  0.750000  0.750000
 
   36   36   36
 0.82820     0.84373     0.89141     0.97433      1.0973      1.2661      1.4873      1.7672      2.1116      2.5239    
  3.0031      3.5417      4.1231      4.7202      5.2964      5.8090      6.2143      6.4748      6.5646      6.4747    
  6.2143      5.8090      5.2965      4.7203      4.1232      3.5418      3.0031      2.5239      2.1116      1.7672    
  1.4872      1.2661      1.0973     0.97434     0.89141     0.84373     0.84373     0.87082     0.92674      1.0148    
  1.1395      1.3059      1.5194      1.7847      2.1050      2.4808      2.9079      3.3759      3.8664      4.3533    
  4.8041      5.1836      5.4586      5.6033      5.6033      5.4587      5.1836      4.8042      4.3534      3.8665    
  3.3759      2.9079      2.4808      2.1049      1.7846      1.5194      1.3059      1.1395      1.0148     0.92674    
 0.87081     0.84373     0.89141     0.92674     0.98797      1.0783      1.2019      1.3630      1.5658      1.8132    
  2.1066      2.4438      2.8182      3.2175      3.6231      4.0111      4.3539      4.6237      4.7965      4.8560    
  4.7965      4.6237      4.3539      4.0111      3.6231      3.2175      2.8182      2.4438      2.1066      1.8132    
  1.5657      1.3630      1.2019      1.0784     0.98797     0.92673     0.89140     0.87987     0.97433      1.0148    
  1.0783      1.1681      1.2875      1.4402      1.6291      1.8558      2.1198      2.4169      2.7390      3.0731    
  3.4016      3.7033      3.9559      4.1382      4.2339      4.2339      4.1382      3.9559      3.7033      3.4016    
  3.0731      2.7389      2.4168      2.1197      1.8558      1.6291      1.4402      1.2875      1.1681      1.0784    
  1.0148     0.97432     0.95469     0.95469      1.0973      1.1395      1.2019      1.2875      1.3993      1.5401    
  1.7117      1.9147      2.1467      2.4027      2.6737      2.9470      3.2067      3.4350      3.6139      3.7283    
  3.7677      3.7283      3.6139      3.4350      3.2067      2.9470      2.6737      2.4027      2.1467      1.9147    
  1.7118      1.5401      1.3993      1.2875      1.2019      1.1395      1.0973      1.0730      1.0650      1.0730    
  1.2661      1.3059      1.3630      1.4402      1.5401      1.6647      1.8153      1.9909      2.1887      2.4027    
  2.6242      2.8414      3.0405      3.2069      3.3269      3.3898      3.3898      3.3268      3.2069      3.0405    
  2.8414      2.6242      2.4027      2.1887      1.9910      1.8153      1.6648      1.5401      1.4402      1.3630    
  1.3059      1.2661      1.2411      1.2291      1.2291      1.2411      1.4873      1.5194      1.5658      1.6291    
  1.7117      1.8153      1.9400      2.0845      2.2454      2.4169      2.5906      2.7564      2.9025      3.0175    
  3.0910      3.1164      3.0910      3.0175      2.9025      2.7564      2.5906      2.4169      2.2455      2.0846    
  1.9400      1.8153      1.7118      1.6291      1.5657      1.5194      1.4872      1.4667      1.4554      1.4518    
  1.4554      1.4667      1.7672      1.7847      1.8132      1.8558      1.9147      1.9909      2.0845      2.1939    
  2.3154      2.4438      2.5718      2.6907      2.7910      2.8639      2.9023      2.9023      2.8639      2.7910    
  2.6907      2.5718      2.4438      2.3154      2.1939      2.0846      1.9909      1.9147      1.8558      1.8132    
  1.7846      1.7672      1.7579      1.7537      1.7522      1.7522      1.7537      1.7579      2.1116      2.1050    
  2.1066      2.1198      2.1467      2.1887      2.2454      2.3154      2.3954      2.4808      2.5654      2.6421    
  2.7037      2.7436      2.7575      2.7436      2.7037      2.6421      2.5654      2.4808      2.3954      2.3154    
  2.2454      2.1887      2.1467      2.1197      2.1066      2.1049      2.1116      2.1228      2.1345      2.1431    
  2.1463      2.1431      2.1344      2.1228      2.5239      2.4808      2.4438      2.4169      2.4027      2.4027    
  2.4169      2.4438      2.4808      2.5239      2.5681      2.6080      2.6383      2.6546      2.6546      2.6383    
  2.6080      2.5681      2.5239      2.4808      2.4438      2.4169      2.4027      2.4027      2.4169      2.4438    
  2.4808      2.5239      2.5681      2.6080      2.6383      2.6546      2.6546      2.6383      2.6080      2.5681    
  3.0031      2.9079      2.8182      2.7390      2.6737      2.6242      2.5906      2.5718      2.5654      2.5681    
  2.5762      2.5856      2.5929      2.5957      2.5930      2.5857      2.5762      2.5681      2.5653      2.5717    
  2.5906      2.6242      2.6737      2.7390      2.8182      2.9079      3.0031      3.0970      3.1820      3.2502    
  3.2943      3.3096      3.2943      3.2501      3.1820      3.0970      3.5417      3.3759      3.2175      3.0731    
  2.9470      2.8414      2.7564      2.6907      2.6421      2.6080      2.5856      2.5724      2.5663      2.5663    
  2.5724      2.5856      2.6080      2.6421      2.6906      2.7563      2.8414      2.9470      3.0731      3.2175    
  3.3759      3.5418      3.7060      3.8579      3.9857      4.0785      4.1273      4.1273      4.0785      3.9857    
  3.8578      3.7059      4.1231      3.8664      3.6231      3.4016      3.2067      3.0405      2.9025      2.7910    
  2.7037      2.6383      2.5929      2.5663      2.5575      2.5663      2.5930      2.6383      2.7036      2.7909    
  2.9024      3.0405      3.2067      3.4016      3.6232      3.8665      4.1232      4.3814      4.6263      4.8414    
  5.0100      5.1178      5.1549      5.1178      5.0100      4.8414      4.6263      4.3813      4.7202      4.3533    
  4.0111      3.7033      3.4350      3.2069      3.0175      2.8639      2.7436      2.6546      2.5957      2.5663    
  2.5663      2.5957      2.6546      2.7436      2.8638      3.0173      3.2068      3.4350      3.7034      4.0111    
  4.3534      4.7202      5.0968      5.4635      5.7976      6.0754      6.2749      6.3794      6.3794      6.2750    
  6.0754      5.7976      5.4635      5.0968      5.2964      4.8041      4.3539      3.9559      3.6139      3.3269    
  3.0910      2.9023      2.7575      2.6546      2.5930      2.5724      2.5930      2.6546      2.7574      2.9022    
  3.0909      3.3268      3.6139      3.9560      4.3539      4.8042      5.2964      5.8131      6.3296      6.8159    
  7.2397      7.5698      7.7797      7.8517      7.7797      7.5698      7.2398      6.8159      6.3296      5.8131    
  5.8090      5.1836      4.6237      4.1382      3.7283      3.3898      3.1164      2.9023      2.7436      2.6383    
  2.5857      2.5856      2.6383      2.7436      2.9022      3.1163      3.3897      3.7283      4.1383      4.6237    
  5.1836      5.8090      6.4807      7.1697      7.8387      8.4458      8.9483      9.3081      9.4959      9.4959    
  9.3081      8.9484      8.4458      7.8388      7.1697      6.4807      6.2143      5.4586      4.7965      4.2339    
  3.7677      3.3898      3.0910      2.8639      2.7037      2.6080      2.5762      2.6080      2.7036      2.8638    
  3.0909      3.3897      3.7677      4.2339      4.7965      5.4586      6.2143      7.0452      7.9197      8.7941    
  9.6170      10.333      10.891      11.245      11.367      11.245      10.891      10.333      9.6170      8.7942    
  7.9197      7.0453      6.4748      5.6033      4.8560      4.2339      3.7283      3.3268      3.0175      2.7910    
  2.6421      2.5681      2.5681      2.6421      2.7909      3.0173      3.3268      3.7283      4.2339      4.8561    
  5.6032      6.4747      7.4555      8.5143      9.6037      10.664      11.629      12.431      13.007      13.308    
  13.308      13.007      12.431      11.629      10.664      9.6037      8.5143      7.4556      6.5646      5.6033    
  4.7965      4.1382      3.6139      3.2069      2.9025      2.6907      2.5654      2.5239      2.5653      2.6906    
  2.9024      3.2068      3.6139      4.1383      4.7965      5.6032      6.5645      7.6717      8.8969      10.193    
  11.496      12.731      13.815      14.666      15.211      15.399      15.211      14.666      13.815      12.731    
  11.496      10.193      8.8970      7.6717      6.4747      5.4587      4.6237      3.9559      3.4350      3.0405    
  2.7564      2.5718      2.4808      2.4808      2.5717      2.7563      3.0405      3.4350      3.9560      4.6237    
  5.4586      6.4747      7.6717      9.0290      10.504      12.033      13.536      14.922      16.089      16.934    
  17.376      17.376      16.934      16.089      14.922      13.536      12.033      10.504      9.0290      7.6717    
  6.2143      5.1836      4.3539      3.7033      3.2067      2.8414      2.5906      2.4438      2.3954      2.4438    
  2.5906      2.8414      3.2067      3.7034      4.3539      5.1836      6.2143      7.4555      8.8969      10.504    
  12.218      13.963      15.641      17.135      18.310      19.061      19.319      19.061      18.310      17.134    
  15.641      13.962      12.218      10.504      8.8969      7.4556      5.8090      4.8042      4.0111      3.4016    
  2.9470      2.6242      2.4169      2.3154      2.3154      2.4169      2.6242      2.9470      3.4016      4.0111    
  4.8042      5.8090      7.0452      8.5143      10.193      12.033      13.963      15.890      17.688      19.200    
  20.292      20.865      20.865      20.292      19.200      17.688      15.890      13.962      12.033      10.193    
  8.5143      7.0452      5.2965      4.3534      3.6231      3.0731      2.6737      2.4027      2.2455      2.1939    
  2.2454      2.4027      2.6737      3.0731      3.6232      4.3534      5.2964      6.4807      7.9197      9.6037    
  11.496      13.536      15.641      17.688      19.508      20.943      21.863      22.181      21.863      20.943    
  19.508      17.688      15.641      13.536      11.496      9.6036      7.9197      6.4807      4.7203      3.8665    
  3.2175      2.7389      2.4027      2.1887      2.0846      2.0846      2.1887      2.4027      2.7390      3.2175    
  3.8665      4.7202      5.8131      7.1697      8.7941      10.664      12.731      14.922      17.135      19.200    
  20.943      22.209      22.876      22.876      22.209      20.943      19.200      17.135      14.922      12.731    
  10.664      8.7941      7.1697      5.8132      4.1232      3.3759      2.8182      2.4168      2.1467      1.9910    
  1.9400      1.9909      2.1467      2.4169      2.8182      3.3759      4.1232      5.0968      6.3296      7.8387    
  9.6170      11.629      13.815      16.089      18.310      20.292      21.863      22.876      23.227      22.876    
  21.863      20.292      18.310      16.089      13.815      11.629      9.6169      7.8387      6.3296      5.0969    
  3.5418      2.9079      2.4438      2.1197      1.9147      1.8153      1.8153      1.9147      2.1197      2.4438    
  2.9079      3.5418      4.3814      5.4635      6.8159      8.4458      10.333      12.431      14.666      16.934    
  19.061      20.865      22.181      22.876      22.876      22.181      20.865      19.061      16.934      14.666    
  12.431      10.333      8.4458      6.8159      5.4636      4.3814      3.0031      2.4808      2.1066      1.8558    
  1.7118      1.6648      1.7118      1.8558      2.1066      2.4808      3.0031      3.7060      4.6263      5.7976    
  7.2397      8.9483      10.891      13.007      15.211      17.376      19.319      20.865      21.863      22.209    
  21.863      20.865      19.320      17.376      15.211      13.007      10.891      8.9483      7.2397      5.7977    
  4.6264      3.7060      2.5239      2.1049      1.8132      1.6291      1.5401      1.5401      1.6291      1.8132    
  2.1049      2.5239      3.0970      3.8579      4.8414      6.0754      7.5698      9.3081      11.245      13.308    
  15.399      17.376      19.061      20.292      20.943      20.943      20.292      19.061      17.376      15.399    
  13.308      11.245      9.3080      7.5698      6.0755      4.8415      3.8579      3.0971      2.1116      1.7846    
  1.5657      1.4402      1.3993      1.4402      1.5657      1.7846      2.1116      2.5681      3.1820      3.9857    
  5.0100      6.2749      7.7797      9.4959      11.367      13.308      15.211      16.934      18.310      19.200    
  19.508      19.200      18.310      16.934      15.211      13.308      11.367      9.4958      7.7796      6.2750    
  5.0101      3.9858      3.1821      2.5681      1.7672      1.5194      1.3630      1.2875      1.2875      1.3630    
  1.5194      1.7672      2.1228      2.6080      3.2502      4.0785      5.1178      6.3794      7.8517      9.4959    
  11.245      13.007      14.666      16.089      17.134      17.688      17.688      17.135      16.089      14.666    
  13.007      11.245      9.4958      7.8517      6.3794      5.1179      4.0786      3.2502      2.6080      2.1228    
  1.4872      1.3059      1.2019      1.1681      1.2019      1.3059      1.4872      1.7579      2.1345      2.6383    
  3.2943      4.1273      5.1549      6.3794      7.7797      9.3081      10.891      12.431      13.815      14.922    
  15.641      15.890      15.641      14.922      13.815      12.431      10.891      9.3080      7.7796      6.3794    
  5.1550      4.1274      3.2944      2.6383      2.1344      1.7579      1.2661      1.1395      1.0784      1.0784    
  1.1395      1.2661      1.4667      1.7537      2.1431      2.6546      3.3096      4.1273      5.1178      6.2750    
  7.5698      8.9484      10.333      11.629      12.731      13.536      13.962      13.962      13.536      12.731    
  11.629      10.333      8.9483      7.5698      6.2750      5.1179      4.1274      3.3097      2.6546      2.1431    
  1.7536      1.4667      1.0973      1.0148     0.98797      1.0148      1.0973      1.2411      1.4554      1.7522    
  2.1463      2.6546      3.2943      4.0785      5.0100      6.0754      7.2398      8.4458      9.6170      10.664    
  11.496      12.033      12.218      12.033      11.496      10.664      9.6169      8.4458      7.2397      6.0755    
  5.0101      4.0786      3.2944      2.6546      2.1462      1.7521      1.4554      1.2411     0.97434     0.92674    
 0.92673     0.97432      1.0730      1.2291      1.4518      1.7522      2.1431      2.6383      3.2501      3.9857    
  4.8414      5.7976      6.8159      7.8388      8.7942      9.6037      10.193      10.504      10.504      10.193    
  9.6036      8.7941      7.8387      6.8159      5.7977      4.8415      3.9858      3.2502      2.6383      2.1431    
  1.7521      1.4518      1.2291      1.0730     0.89141     0.87081     0.89140     0.95469      1.0650      1.2291    
  1.4554      1.7537      2.1344      2.6080      3.1820      3.8578      4.6263      5.4635      6.3296      7.1697    
  7.9197      8.5143      8.8970      9.0290      8.8969      8.5143      7.9197      7.1697      6.3296      5.4636    
  4.6264      3.8579      3.1821      2.6080      2.1344      1.7536      1.4554      1.2291      1.0650     0.95470    
 0.84373     0.84373     0.87987     0.95469      1.0730      1.2411      1.4667      1.7579      2.1228      2.5681    
  3.0970      3.7059      4.3813      5.0968      5.8131      6.4807      7.0453      7.4556      7.6717      7.6717    
  7.4556      7.0452      6.4807      5.8132      5.0969      4.3814      3.7060      3.0971      2.5681      2.1228    
  1.7579      1.4667      1.2411      1.0730     0.95470     0.87988     0.84373     0.87082     0.92674      1.0148    
  1.1395      1.3059      1.5194      1.7847      2.1050      2.4808      2.9079      3.3759      3.8664      4.3533    
  4.8041      5.1836      5.4586      5.6033      5.6033      5.4587      5.1836      4.8042      4.3534      3.8665    
  3.3759      2.9079      2.4808      2.1049      1.7846      1.5194      1.3059      1.1395      1.0148     0.92674    
 0.87081     0.84373     0.87082     0.90562     0.96586      1.0547      1.1759      1.3340      1.5329      1.7758    
  2.0640      2.3954      2.7636      3.1563      3.5553      3.9368      4.2737      4.5388      4.7086      4.7670    
  4.7086      4.5388      4.2737      3.9368      3.5553      3.1564      2.7636      2.3954      2.0639      1.7758    
  1.5328      1.3339      1.1759      1.0547     0.96586     0.90561     0.87081     0.85944     0.92674     0.96586    
  1.0271      1.1134      1.2280      1.3745      1.5560      1.7742      2.0286      2.3154      2.6266      2.9493    
  3.2666      3.5577      3.8012      3.9768      4.0689      4.0689      3.9768      3.8012      3.5578      3.2666    
  2.9493      2.6266      2.3154      2.0286      1.7741      1.5560      1.3745      1.2280      1.1134      1.0271    
 0.96585     0.92673     0.90770     0.90770      1.0148      1.0547      1.1134      1.1935      1.2982      1.4302    
  1.5916      1.7831      2.0027      2.2454      2.5026      2.7617      3.0077      3.2235      3.3925      3.5003    
  3.5374      3.5003      3.3924      3.2235      3.0077      2.7617      2.5025      2.2454      2.0027      1.7831    
  1.5916      1.4302      1.2982      1.1936      1.1134      1.0546      1.0148     0.99173     0.98419     0.99174    
  1.1395      1.1759      1.2280      1.2982      1.3893      1.5035      1.6423      1.8051      1.9891      2.1887    
  2.3952      2.5975      2.7825      2.9366      3.0475      3.1056      3.1056      3.0475      2.9366      2.7825    
  2.5975      2.3952      2.1887      1.9891      1.8051      1.6423      1.5036      1.3893      1.2982      1.2280    
  1.1759      1.1395      1.1164      1.1053      1.1053      1.1164      1.3059      1.3340      1.3745      1.4302    
  1.5035      1.5964      1.7094      1.8414      1.9891      2.1467      2.3064      2.4583      2.5918      2.6964    
  2.7632      2.7862      2.7632      2.6964      2.5918      2.4583      2.3064      2.1467      1.9891      1.8414    
  1.7094      1.5964      1.5036      1.4302      1.3745      1.3339      1.3059      1.2879      1.2779      1.2747    
  1.2779      1.2879      1.5194      1.5329      1.5560      1.5916      1.6423      1.7094      1.7932      1.8921    
  2.0027      2.1198      2.2363      2.3441      2.4347      2.5003      2.5348      2.5348      2.5003      2.4347    
  2.3441      2.2363      2.1198      2.0027      1.8921      1.7932      1.7094      1.6423      1.5916      1.5560    
  1.5328      1.5194      1.5126      1.5097      1.5089      1.5089      1.5097      1.5126      1.7847      1.7758    
  1.7742      1.7831      1.8051      1.8414      1.8921      1.9555      2.0286      2.1066      2.1838      2.2535    
  2.3092      2.3452      2.3577      2.3452      2.3092      2.2535      2.1838      2.1066      2.0286      1.9555    
  1.8921      1.8414      1.8051      1.7831      1.7741      1.7758      1.7846      1.7970      1.8092      1.8179    
  1.8211      1.8179      1.8092      1.7970      2.1050      2.0640      2.0286      2.0027      1.9891      1.9891    
  2.0027      2.0286      2.0640      2.1050      2.1469      2.1844      2.2128      2.2280      2.2280      2.2128    
  2.1844      2.1469      2.1050      2.0640      2.0286      2.0027      1.9891      1.9891      2.0027      2.0286    
  2.0640      2.1050      2.1469      2.1844      2.2128      2.2280      2.2280      2.2128      2.1844      2.1469    
  2.4808      2.3954      2.3154      2.2454      2.1887      2.1467      2.1198      2.1066      2.1050      2.1116    
  2.1228      2.1344      2.1431      2.1463      2.1431      2.1345      2.1228      2.1116      2.1049      2.1066    
  2.1197      2.1467      2.1887      2.2454      2.3154      2.3954      2.4808      2.5654      2.6421      2.7037    
  2.7436      2.7575      2.7436      2.7037      2.6421      2.5654      2.9079      2.7636      2.6266      2.5026    
  2.3952      2.3064      2.2363      2.1838      2.1469      2.1228      2.1085      2.1011      2.0980      2.0980    
  2.1011      2.1085      2.1228      2.1468      2.1837      2.2362      2.3064      2.3952      2.5026      2.6266    
  2.7636      2.9080      3.0517      3.1854      3.2984      3.3806      3.4240      3.4240      3.3806      3.2984    
  3.1854      3.0517      3.3759      3.1563      2.9493      2.7617      2.5975      2.4583      2.3441      2.2535    
  2.1844      2.1344      2.1011      2.0821      2.0759      2.0821      2.1011      2.1344      2.1844      2.2534    
  2.3440      2.4583      2.5975      2.7618      2.9494      3.1564      3.3759      3.5982      3.8106      3.9983    
  4.1464      4.2415      4.2743      4.2415      4.1464      3.9983      3.8106      3.5982      3.8664      3.5553    
  3.2666      3.0077      2.7825      2.5918      2.4347      2.3092      2.2128      2.1431      2.0980      2.0759    
  2.0759      2.0980      2.1431      2.2127      2.3091      2.4347      2.5918      2.7825      3.0077      3.2666    
  3.5554      3.8665      4.1881      4.5040      4.7945      5.0380      5.2142      5.3068      5.3068      5.2142    
  5.0380      4.7945      4.5040      4.1880      4.3533      3.9368      3.5577      3.2235      2.9366      2.6964    
  2.5003      2.3452      2.2280      2.1463      2.0980      2.0821      2.0980      2.1462      2.2280      2.3451    
  2.5003      2.6964      2.9367      3.2236      3.5578      3.9368      4.3533      4.7940      5.2390      5.6628    
  6.0363      6.3300      6.5181      6.5829      6.5181      6.3300      6.0364      5.6628      5.2389      4.7939    
  4.8041      4.2737      3.8012      3.3925      3.0475      2.7632      2.5348      2.3577      2.2280      2.1431    
  2.1011      2.1011      2.1431      2.2280      2.3576      2.5347      2.7632      3.0476      3.3925      3.8013    
  4.2737      4.8041      5.3789      5.9754      6.5624      7.1023      7.5547      7.8815      8.0531      8.0531    
  7.8815      7.5547      7.1024      6.5624      5.9754      5.3789      5.1836      4.5388      3.9768      3.5003    
  3.1056      2.7862      2.5348      2.3452      2.2128      2.1345      2.1085      2.1344      2.2127      2.3451    
  2.5347      2.7862      3.1057      3.5004      3.9769      4.5388      5.1836      5.8994      6.6623      7.4368    
  8.1766      8.8295      9.3432      9.6721      9.7854      9.6721      9.3431      8.8295      8.1766      7.4368    
  6.6623      5.8994      5.4586      4.7086      4.0689      3.5374      3.1056      2.7632      2.5003      2.3092    
  2.1844      2.1228      2.1228      2.1844      2.3091      2.5003      2.7632      3.1057      3.5374      4.0689    
  4.7086      5.4586      6.3111      7.2438      8.2187      9.1832      10.074      10.822      11.363      11.648    
  11.648      11.363      10.822      10.073      9.1831      8.2187      7.2438      6.3111      5.6033      4.7670    
  4.0689      3.5003      3.0475      2.6964      2.4347      2.2535      2.1469      2.1116      2.1468      2.2534    
  2.4347      2.6964      3.0476      3.5004      4.0689      4.7670      5.6033      6.5758      7.6668      8.8397    
  10.038      11.191      12.213      13.022      13.542      13.721      13.542      13.022      12.213      11.190    
  10.038      8.8397      7.6668      6.5757      5.6033      4.7086      3.9768      3.3924      2.9366      2.5918    
  2.3441      2.1838      2.1050      2.1049      2.1837      2.3440      2.5918      2.9367      3.3925      3.9769    
  4.7086      5.6033      6.6671      7.8897      9.2397      10.662      12.081      13.402      14.521      15.337    
  15.769      15.769      15.337      14.521      13.402      12.081      10.662      9.2397      7.8897      6.6670    
  5.4587      4.5388      3.8012      3.2235      2.7825      2.4583      2.2363      2.1066      2.0640      2.1066    
  2.2362      2.4583      2.7825      3.2236      3.8013      4.5388      5.4586      6.5758      7.8897      9.3779    
  10.992      12.656      14.273      15.724      16.884      17.636      17.896      17.635      16.883      15.724    
  14.273      12.656      10.992      9.3778      7.8896      6.5757      5.1836      4.2737      3.5578      3.0077    
  2.5975      2.3064      2.1198      2.0286      2.0286      2.1197      2.3064      2.5975      3.0077      3.5578    
  4.2737      5.1836      6.3111      7.6668      9.2397      10.992      12.856      14.735      16.506      18.027    
  19.148      19.743      19.743      19.148      18.027      16.506      14.735      12.855      10.992      9.2396    
  7.6667      6.3111      4.8042      3.9368      3.2666      2.7617      2.3952      2.1467      2.0027      1.9555    
  2.0027      2.1467      2.3952      2.7618      3.2666      3.9368      4.8041      5.8994      7.2438      8.8397    
  10.662      12.656      14.735      16.778      18.636      20.135      21.111      21.450      21.111      20.135    
  18.636      16.778      14.735      12.656      10.662      8.8396      7.2438      5.8994      4.3534      3.5553    
  2.9493      2.5025      2.1887      1.9891      1.8921      1.8921      1.9891      2.1887      2.5026      2.9494    
  3.5554      4.3533      5.3789      6.6623      8.2187      10.038      12.081      14.273      16.506      18.636    
  20.479      21.840      22.564      22.564      21.840      20.479      18.636      16.506      14.273      12.081    
  10.038      8.2187      6.6623      5.3789      3.8665      3.1564      2.6266      2.2454      1.9891      1.8414    
  1.7932      1.8414      1.9891      2.2454      2.6266      3.1564      3.8665      4.7940      5.9754      7.4368    
  9.1832      11.191      13.402      15.724      18.027      20.135      21.840      22.952      23.338      22.952    
  21.840      20.135      18.027      15.724      13.402      11.190      9.1831      7.4368      5.9754      4.7940    
  3.3759      2.7636      2.3154      2.0027      1.8051      1.7094      1.7094      1.8051      2.0027      2.3154    
  2.7636      3.3759      4.1881      5.2390      6.5624      8.1766      10.074      12.213      14.521      16.884    
  19.148      21.111      22.564      23.338      23.338      22.564      21.111      19.148      16.884      14.521    
  12.213      10.073      8.1766      6.5625      5.2390      4.1881      2.9079      2.3954      2.0286      1.7831    
  1.6423      1.5964      1.6423      1.7831      2.0286      2.3954      2.9080      3.5982      4.5040      5.6628    
  7.1023      8.8295      10.822      13.022      15.337      17.636      19.743      21.450      22.564      22.952    
  22.564      21.450      19.743      17.636      15.337      13.022      10.822      8.8295      7.1024      5.6629    
  4.5041      3.5983      2.4808      2.0639      1.7741      1.5916      1.5036      1.5036      1.5916      1.7741    
  2.0640      2.4808      3.0517      3.8106      4.7945      6.0363      7.5547      9.3432      11.363      13.542    
  15.769      17.896      19.743      21.111      21.840      21.840      21.111      19.743      17.897      15.769    
  13.542      11.363      9.3431      7.5548      6.0365      4.7946      3.8106      3.0517      2.1049      1.7758    
  1.5560      1.4302      1.3893      1.4302      1.5560      1.7758      2.1050      2.5654      3.1854      3.9983    
  5.0380      6.3300      7.8815      9.6721      11.648      13.721      15.769      17.635      19.148      20.135    
  20.479      20.135      19.148      17.636      15.769      13.721      11.648      9.6721      7.8816      6.3302    
  5.0382      3.9984      3.1854      2.5653      1.7846      1.5328      1.3745      1.2982      1.2982      1.3745    
  1.5328      1.7846      2.1469      2.6421      3.2984      4.1464      5.2142      6.5181      8.0531      9.7854    
  11.648      13.542      15.337      16.883      18.027      18.636      18.636      18.027      16.884      15.337    
  13.542      11.648      9.7854      8.0532      6.5182      5.2143      4.1465      3.2984      2.6421      2.1468    
  1.5194      1.3339      1.2280      1.1936      1.2280      1.3339      1.5194      1.7970      2.1844      2.7037    
  3.3806      4.2415      5.3068      6.5829      8.0531      9.6721      11.363      13.022      14.521      15.724    
  16.506      16.778      16.506      15.724      14.521      13.022      11.363      9.6721      8.0532      6.5830    
  5.3069      4.2416      3.3806      2.7036      2.1844      1.7970      1.3059      1.1759      1.1134      1.1134    
  1.1759      1.3059      1.5126      1.8092      2.2128      2.7436      3.4240      4.2743      5.3068      6.5181    
  7.8815      9.3431      10.822      12.213      13.402      14.273      14.735      14.735      14.273      13.402    
  12.213      10.822      9.3431      7.8816      6.5182      5.3069      4.2744      3.4240      2.7436      2.2127    
  1.8091      1.5125      1.1395      1.0547      1.0271      1.0546      1.1395      1.2879      1.5097      1.8179    
  2.2280      2.7575      3.4240      4.2415      5.2142      6.3300      7.5547      8.8295      10.073      11.190    
  12.081      12.656      12.855      12.656      12.081      11.190      10.073      8.8295      7.5548      6.3302    
  5.2143      4.2416      3.4240      2.7574      2.2280      1.8179      1.5097      1.2879      1.0148     0.96586    