    2    2   15    1
  0.2104485E+02  0.3904484E-09  0.3904484E-09  0.3904484E-09  0.5000000E-15
  1.000000000000000E-004
  CAR 
 unknown system                          
      8     60      8
 
  0.6250000E-01  0.6250000E-01  0.6250000E-01  0.3906250E-02
    1       -6.241802   1.000000
    2        4.796123   1.000000
    3        5.251843   0.998777
    4        5.251843   0.998777
    5        7.867098   0.000000
    6        7.994659   0.000000
    7        7.994659   0.000000
    8        8.600126   0.000000
 
  0.1875000E+00  0.6250000E-01  0.6250000E-01  0.1171875E-01
    1       -5.982164   1.000000
    2        3.306426   1.000000
    3        4.474818   1.000000
    4        5.135104   0.999942
    5        7.884978   0.000000
    6        8.233729   0.000000
    7        8.498793   0.000000
    8       10.121067   0.000000
 
  0.3125000E+00  0.6250000E-01  0.6250000E-01  0.1171875E-01
    1       -5.356506   1.000000
    2        1.141925   1.000000
    3        3.995907   1.000000
    4        4.686763   1.000000
    5        7.432220   0.000000
    6        8.725013   0.000000
    7        9.001281   0.000000
    8       11.727734   0.000000
 
  0.4375000E+00  0.6250000E-01  0.6250000E-01  0.1171875E-01
    1       -4.488238   1.000000
    2       -0.684108   1.000000
    3        3.781082   1.000000
    4        4.292188   1.000000
    5        7.119323   0.000000
    6        8.807106   0.000000
    7        8.820759   0.000000
    8       13.025804   0.000000
 
 -0.4375000E+00  0.6250000E-01  0.6250000E-01  0.1171875E-01
    1       -4.061860   1.000000
    2       -1.355884   1.000000
    3        3.825969   1.000000
    4        4.082005   1.000000
    5        7.040958   0.000000
    6        8.623881   0.000000
    7        8.886038   0.000000
    8       13.125945   0.000000
 
 -0.3125000E+00  0.6250000E-01  0.6250000E-01  0.1171875E-01
    1       -4.784636   1.000000
    2       -0.145578   1.000000
    3        4.103409   1.000000
    4        4.104794   1.000000
    5        7.209036   0.000000
    6        8.618533   0.000000
    7        9.125951   0.000000
    8       12.164616   0.000000
 
 -0.1875000E+00  0.6250000E-01  0.6250000E-01  0.1171875E-01
    1       -5.601587   1.000000
    2        1.851025   1.000000
    3        4.375263   1.000000
    4        4.555525   1.000000
    5        7.573484   0.000000
    6        8.448087   0.000000
    7        9.157455   0.000000
    8       10.958644   0.000000
 
 -0.6250000E-01  0.6250000E-01  0.6250000E-01  0.1171875E-01
    1       -6.111277   1.000000
    2        4.044169   1.000000
    3        4.842814   1.000000
    4        4.987510   1.000000
    5        7.713260   0.000000
    6        8.208789   0.000000
    7        8.553138   0.000000
    8        9.371991   0.000000
 
  0.1875000E+00  0.1875000E+00  0.6250000E-01  0.1171875E-01
    1       -5.851455   1.000000
    2        3.149622   1.000000
    3        4.304861   1.000000
    4        4.375418   1.000000
    5        7.308172   0.000000
    6        8.932493   0.000000
    7        9.385207   0.000000
    8        9.845969   0.000000
 
  0.3125000E+00  0.1875000E+00  0.6250000E-01  0.2343750E-01
    1       -5.343806   1.000000
    2        1.682648   1.000000
    3        3.364745   1.000000
    4        4.126087   1.000000
    5        7.470650   0.000000
    6        9.036663   0.000000
    7        9.779447   0.000000
    8       10.163662   0.000000
 
  0.4375000E+00  0.1875000E+00  0.6250000E-01  0.2343750E-01
    1       -4.528567   1.000000
    2       -0.110430   1.000000
    3        2.871654   1.000000
    4        3.733247   1.000000
    5        7.648308   0.000000
    6        9.023783   0.000000
    7       10.191403   0.000000
    8       10.495946   0.000000
 
 -0.4375000E+00  0.1875000E+00  0.6250000E-01  0.2343750E-01
    1       -3.801029   1.000000
    2       -1.270540   1.000000
    3        2.587510   1.000000
    4        3.644627   1.000000
    5        7.700073   0.000000
    6        8.758454   0.000000
    7       10.055616   0.000000
    8       12.444938   0.000000
 
 -0.3125000E+00  0.1875000E+00  0.6250000E-01  0.2343750E-01
    1       -4.237312   1.000000
    2       -0.609964   1.000000
    3        2.522294   1.000000
    4        3.917598   1.000000
    5        7.949019   0.000000
    6        8.693104   0.000000
    7        9.995902   0.000000
    8       11.720374   0.000000
 
 -0.1875000E+00  0.1875000E+00  0.6250000E-01  0.2343750E-01
    1       -5.104395   1.000000
    2        1.054656   1.000000
    3        2.827894   1.000000
    4        4.405658   1.000000
    5        8.262087   0.000000
    6        8.584633   0.000000
    7        9.868732   0.000000
    8       10.364210   0.000000
 
 -0.6250000E-01  0.1875000E+00  0.6250000E-01  0.2343750E-01
    1       -5.725336   1.000000
    2        2.500367   1.000000
    3        3.916874   1.000000
    4        4.764971   1.000000
    5        7.843457   0.000000
    6        8.429102   0.000000
    7        9.204138   0.000000
    8       10.383210   0.000000
 
  0.3125000E+00  0.3125000E+00  0.6250000E-01  0.1171875E-01
    1       -4.955606   1.000000
    2        1.169982   1.000000
    3        3.228344   1.000000
    4        3.346007   1.000000
    5        6.525114   0.000000
    6        8.160028   0.000000
    7       11.182718   0.000000
    8       11.337301   0.000000
 
  0.4375000E+00  0.3125000E+00  0.6250000E-01  0.2343750E-01
    1       -4.228780   1.000000
    2       -0.032641   1.000000
    3        2.470563   1.000000
    4        3.012298   1.000000
    5        6.833481   0.000000
    6        8.002346   0.000000
    7       11.148354   0.000000
    8       12.301432   0.000000
 
 -0.4375000E+00  0.3125000E+00  0.6250000E-01  0.2343750E-01
    1       -3.366209   1.000000
    2       -1.184870   1.000000
    3        1.659668   1.000000
    4        2.981352   1.000000
    5        7.067121   0.000000
    6        9.619248   0.000000
    7       10.733705   0.000000
    8       12.214268   0.000000
 
 -0.3125000E+00  0.3125000E+00  0.6250000E-01  0.2343750E-01
    1       -3.436984   1.000000
    2       -1.092635   1.000000
    3        1.322767   1.000000
    4        3.312621   1.000000
    5        7.451900   0.000000
    6       10.314376   0.000000
    7       11.560961   0.000000
    8       11.915913   0.000000
 
 -0.1875000E+00  0.3125000E+00  0.6250000E-01  0.2343750E-01
    1       -4.299049   1.000000
    2       -0.160427   1.000000
    3        1.900229   1.000000
    4        3.875675   1.000000
    5        8.041656   0.000000
    6        9.235959   0.000000
    7       10.609153   0.000000
    8       10.915161   0.000000
 
 -0.6250000E-01  0.3125000E+00  0.6250000E-01  0.2343750E-01
    1       -4.995539   1.000000
    2        0.483437   1.000000
    3        3.466224   1.000000
    4        4.308772   1.000000
    5        7.710186   0.000000
    6        8.623665   0.000000
    7        9.464057   0.000000
    8       11.122363   0.000000
 
  0.4375000E+00  0.4375000E+00  0.6250000E-01  0.1171875E-01
    1       -3.595232   1.000000
    2       -0.873331   1.000000
    3        2.563895   1.000000
    4        2.770345   1.000000
    5        6.150428   0.000444
    6        6.855563   0.000000
    7       13.416571   0.000000
    8       13.444479   0.000000
 
 -0.4375000E+00  0.4375000E+00  0.6250000E-01  0.2343750E-01
    1       -2.716529   1.000000
    2       -1.833587   1.000000
    3        2.031025   1.000000
    4        2.538256   1.000000
    5        6.574206   0.000000
    6        7.282129   0.000000
    7       13.186180   0.000000
    8       14.145677   0.000000
 
 -0.3125000E+00  0.4375000E+00  0.6250000E-01  0.2343750E-01
    1       -2.818493   1.000000
    2       -1.667427   1.000000
    3        1.332721   1.000000
    4        2.842404   1.000000
    5        6.926011   0.000000
    6        9.463267   0.000000
    7       11.701143   0.000000
    8       12.802377   0.000000
 
 -0.1875000E+00  0.4375000E+00  0.6250000E-01  0.2343750E-01
    1       -3.552735   1.000000
    2       -1.241511   1.000000
    3        1.843646   1.000000
    4        3.422030   1.000000
    5        7.562489   0.000000
    6        9.476448   0.000000
    7       10.974617   0.000000
    8       12.202467   0.000000
 
 -0.6250000E-01  0.4375000E+00  0.6250000E-01  0.2343750E-01
    1       -4.139970   1.000000
    2       -1.075456   1.000000
    3        3.289972   1.000000
    4        3.986278   1.000000
    5        7.501227   0.000000
    6        8.558403   0.000000
    7        9.301012   0.000000
    8       12.766292   0.000000
 
 -0.4375000E+00 -0.4375000E+00  0.6250000E-01  0.1171875E-01
    1       -2.764192   1.000000
    2       -1.849143   1.000000
    3        2.430571   1.000000
    4        2.652672   1.000000
    5        6.152915   0.000416
    6        6.504257   0.000000
    7       14.466220   0.000000
    8       14.519022   0.000000
 
 -0.3125000E+00 -0.4375000E+00  0.6250000E-01  0.2343750E-01
    1       -3.513828   1.000000
    2       -0.935815   1.000000
    3        2.181507   1.000000
    4        2.693149   1.000000
    5        6.655058   0.000000
    6        7.530756   0.000000
    7       12.141417   0.000000
    8       13.426167   0.000000
 
 -0.1875000E+00 -0.4375000E+00  0.6250000E-01  0.2343750E-01
    1       -3.973416   1.000000
    2       -0.655995   1.000000
    3        2.225842   1.000000
    4        3.271183   1.000000
    5        7.330945   0.000000
    6        9.797533   0.000000
    7        9.965429   0.000000
    8       11.185162   0.000000
 
 -0.3125000E+00 -0.3125000E+00  0.6250000E-01  0.1171875E-01
    1       -4.329595   1.000000
    2        0.142082   1.000000
    3        2.830239   1.000000
    4        3.003300   1.000000
    5        6.273059   0.000014
    6        7.420494   0.000000
    7       12.283220   0.000000
    8       12.377608   0.000000
 
 -0.1875000E+00 -0.3125000E+00  0.6250000E-01  0.2343750E-01
    1       -4.842476   1.000000
    2        0.843016   1.000000
    3        2.873793   1.000000
    4        3.501568   1.000000
    5        7.112137   0.000000
    6        8.651768   0.000000
    7       10.229228   0.000000
    8       11.202901   0.000000
 
 -0.1875000E+00 -0.1875000E+00  0.6250000E-01  0.1171875E-01
    1       -5.464882   1.000000
    2        2.181939   1.000000
    3        3.752315   1.000000
    4        3.787491   1.000000
    5        6.884343   0.000000
    6        8.960728   0.000000
    7       10.176525   0.000000
    8       10.333196   0.000000
 
  0.1875000E+00  0.1875000E+00  0.1875000E+00  0.3906250E-02
    1       -5.854727   1.000000
    2        2.605714   1.000000
    3        4.824893   1.000000
    4        4.824893   1.000000
    5        7.433159   0.000000
    6        8.595426   0.000000
    7        8.595426   0.000000
    8       10.747034   0.000000
 
  0.3125000E+00  0.1875000E+00  0.1875000E+00  0.1171875E-01
    1       -5.474982   1.000000
    2        1.770594   1.000000
    3        3.363058   1.000000
    4        4.838306   1.000000
    5        8.085724   0.000000
    6        8.718084   0.000000
    7        8.993047   0.000000
    8       10.905885   0.000000
 
  0.4375000E+00  0.1875000E+00  0.1875000E+00  0.1171875E-01
    1       -4.752649   1.000000
    2        0.429716   1.000000
    3        2.317196   1.000000
    4        4.350667   1.000000
    5        7.979507   0.000000
    6        9.457665   0.000000
    7        9.642665   0.000000
    8       11.191411   0.000000
 
 -0.4375000E+00  0.1875000E+00  0.1875000E+00  0.1171875E-01
    1       -3.893252   1.000000
    2       -1.002139   1.000000
    3        2.157563   1.000000
    4        3.838069   1.000000
    5        7.517085   0.000000
    6        9.603548   0.000000
    7        9.856892   0.000000
    8       13.022967   0.000000
 
 -0.3125000E+00  0.1875000E+00  0.1875000E+00  0.1171875E-01
    1       -3.877784   1.000000
    2       -1.029881   1.000000
    3        2.443652   1.000000
    4        3.531850   1.000000
    5        7.260184   0.000000
    6        9.662771   0.000000
    7       10.194795   0.000000
    8       11.141858   0.000000
 
 -0.1875000E+00  0.1875000E+00  0.1875000E+00  0.1171875E-01
    1       -4.735612   1.000000
    2        0.426554   1.000000
    3        3.039462   1.000000
    4        3.510699   1.000000
    5        7.197742   0.000000
    6        9.323098   0.000000
    7        9.952824   0.000000
    8       10.544110   0.000000
 
  0.3125000E+00  0.3125000E+00  0.1875000E+00  0.1171875E-01
    1       -5.226422   1.000000
    2        1.126542   1.000000
    3        3.835870   1.000000
    4        3.915960   1.000000
    5        7.560877   0.000000
    6        8.855164   0.000000
    7        9.815343   0.000000
    8       10.212037   0.000000
 
  0.4375000E+00  0.3125000E+00  0.1875000E+00  0.2343750E-01
    1       -4.620466   1.000000
    2        0.357195   1.000000
    3        2.372435   1.000000
    4        3.724988   1.000000
    5        8.055831   0.000000
    6        9.037150   0.000000
    7        9.581675   0.000000
    8       11.031297   0.000000
 
 -0.4375000E+00  0.3125000E+00  0.1875000E+00  0.2343750E-01
    1       -3.761011   1.000000
    2       -0.719677   1.000000
    3        1.612442   1.000000
    4        3.180560   1.000000
    5        8.499100   0.000000
    6        8.976643   0.000000
    7       10.223465   0.000000
    8       12.101787   0.000000
 
 -0.3125000E+00  0.3125000E+00  0.1875000E+00  0.2343750E-01
    1       -3.293921   1.000000
    2       -1.307810   1.000000
    3        1.610275   1.000000
    4        2.880701   1.000000
    5        8.047705   0.000000
    6        9.296307   0.000000
    7       10.988369   0.000000
    8       12.218440   0.000000
 
 -0.1875000E+00  0.3125000E+00  0.1875000E+00  0.2343750E-01
    1       -4.034073   1.000000
    2       -0.343513   1.000000
    3        2.022955   1.000000
    4        3.052308   1.000000
    5        7.783876   0.000000
    6        8.983861   0.000000
    7        9.791520   0.000000
    8       12.219149   0.000000
 
  0.4375000E+00  0.4375000E+00  0.1875000E+00  0.1171875E-01
    1       -4.139522   1.000000
    2       -0.282863   1.000000
    3        2.341625   1.000000
    4        3.190118   1.000000
    5        6.835503   0.000000
    6        8.819308   0.000000
    7       10.976470   0.000000
    8       11.348702   0.000000
 
 -0.4375000E+00  0.4375000E+00  0.1875000E+00  0.2343750E-01
    1       -3.362698   1.000000
    2       -1.071063   1.000000
    3        1.791633   1.000000
    4        2.536426   1.000000
    5        7.589201   0.000000
    6        8.584641   0.000000
    7       10.667100   0.000000
    8       13.388821   0.000000
 
 -0.3125000E+00  0.4375000E+00  0.1875000E+00  0.2343750E-01
    1       -2.584633   1.000000
    2       -1.807262   1.000000
    3        1.489655   1.000000
    4        2.055246   1.000000
    5        8.687658   0.000000
    6        9.608830   0.000000
    7       10.220240   0.000000
    8       11.215411   0.000000
 
 -0.1875000E+00  0.4375000E+00  0.1875000E+00  0.2343750E-01
    1       -3.167539   1.000000
    2       -1.269361   1.000000
    3        1.477612   1.000000
    4        2.512939   1.000000
    5        8.783535   0.000000
    6        9.190886   0.000000
    7        9.920230   0.000000
    8       12.353406   0.000000
 
 -0.4375000E+00 -0.4375000E+00  0.1875000E+00  0.1171875E-01
    1       -2.740140   1.000000
    2       -1.782518   1.000000
    3        1.589441   1.000000
    4        2.857999   1.000000
    5        6.421102   0.000000
    6        8.271121   0.000000
    7       13.113845   0.000000
    8       13.275924   0.000000
 
 -0.3125000E+00 -0.4375000E+00  0.1875000E+00  0.2343750E-01
    1       -2.642694   1.000000
    2       -1.815678   1.000000
    3        1.679887   1.000000
    4        2.259214   1.000000
    5        7.489626   0.000000
    6        8.383630   0.000000
    7       11.649540   0.000000
    8       12.735000   0.000000
 
 -0.3125000E+00 -0.3125000E+00  0.1875000E+00  0.1171875E-01
    1       -3.456471   1.000000
    2       -1.030971   1.000000
    3        1.842843   1.000000
    4        2.969861   1.000000
    5        6.564363   0.000000
    6        8.452890   0.000000
    7       12.110193   0.000000
    8       12.231060   0.000000
 
  0.3125000E+00  0.3125000E+00  0.3125000E+00  0.3906250E-02
    1       -5.123394   1.000000
    2        0.461169   1.000000
    3        4.422017   1.000000
    4        4.422017   1.000000
    5        6.980226   0.000000
    6        8.841618   0.000000
    7        8.841618   0.000000
    8       12.784614   0.000000
 
  0.4375000E+00  0.3125000E+00  0.3125000E+00  0.1171875E-01
    1       -4.660091   1.000000
    2       -0.107902   1.000000
    3        2.996567   1.000000
    4        4.335847   1.000000
    5        7.713436   0.000000
    6        9.054820   0.000000
    7        9.107273   0.000000
    8       12.197519   0.000000
 
 -0.4375000E+00  0.3125000E+00  0.3125000E+00  0.1171875E-01
    1       -3.895186   1.000000
    2       -0.650528   1.000000
    3        1.534457   1.000000
    4        3.776564   1.000000
    5        7.455249   0.000000
    6       10.455689   0.000000
    7       10.602047   0.000000
    8       11.938349   0.000000
 
 -0.3125000E+00  0.3125000E+00  0.3125000E+00  0.1171875E-01
    1       -3.104344   1.000000
    2       -1.417301   1.000000
    3        1.214751   1.000000
    4        3.248638   1.000000
    5        6.869960   0.000000
    6       10.681554   0.000000
    7       11.694334   0.000000
    8       11.903336   0.000000
 
  0.4375000E+00  0.4375000E+00  0.3125000E+00  0.1171875E-01
    1       -4.357847   1.000000
    2       -0.646895   1.000000
    3        3.314246   1.000000
    4        3.793862   1.000000
    5        7.465762   0.000000
    6        8.810912   0.000000
    7        9.582314   0.000000
    8       11.568734   0.000000
 
 -0.4375000E+00  0.4375000E+00  0.3125000E+00  0.2343750E-01
    1       -3.760079   1.000000
    2       -1.010724   1.000000
    3        2.055643   1.000000
    4        3.339004   1.000000
    5        8.238712   0.000000
    6        8.608693   0.000000
    7       11.046353   0.000000
    8       11.330014   0.000000
 
 -0.3125000E+00  0.4375000E+00  0.3125000E+00  0.2343750E-01
    1       -2.969841   1.000000
    2       -1.486116   1.000000
    3        1.303947   1.000000
    4        2.652676   1.000000
    5        7.925434   0.000000
    6       10.125809   0.000000
    7       10.875615   0.000000
    8       11.379951   0.000000
 
 -0.4375000E+00 -0.4375000E+00  0.3125000E+00  0.1171875E-01
    1       -3.415155   1.000000
    2       -1.287821   1.000000
    3        1.683633   1.000000
    4        3.345215   1.000000
    5        7.011133   0.000000
    6       10.638452   0.000000
    7       10.936417   0.000000
    8       10.954615   0.000000
 
  0.4375000E+00  0.4375000E+00  0.4375000E+00  0.3906250E-02
    1       -4.269390   1.000000
    2       -1.129046   1.000000
    3        4.205686   1.000000
    4        4.205686   1.000000
    5        6.728324   0.000000
    6        8.721113   0.000000
    7        8.721113   0.000000
    8       13.029711   0.000000
 
 -0.4375000E+00  0.4375000E+00  0.4375000E+00  0.1171875E-01
    1       -3.932292   1.000000
    2       -1.303583   1.000000
    3        3.009411   1.000000
    4        3.948340   1.000000
    5        7.477960   0.000000
    6        8.822839   0.000000
    7        9.282695   0.000000
    8       13.358224   0.000000
