       N       E                     dE             d eps       ncg     rms          rms(c)
DAV:   1     0.511950524531E+01    0.51195E+01   -0.28238E+03   960   0.594E+02
DAV:   2    -0.107978129513E+02   -0.15917E+02   -0.15305E+02  1544   0.743E+01
DAV:   3    -0.109900003790E+02   -0.19219E+00   -0.19219E+00  1176   0.106E+01
DAV:   4    -0.109908707214E+02   -0.87034E-03   -0.87034E-03  1592   0.755E-01
DAV:   5    -0.109908714929E+02   -0.77149E-06   -0.77152E-06  1216   0.180E-02    0.289E+00
DAV:   6    -0.108865386832E+02    0.10433E+00   -0.66518E-02  1152   0.134E+00    0.172E+00
DAV:   7    -0.108371135043E+02    0.49425E-01   -0.12867E-01  1216   0.199E+00    0.143E-01
DAV:   8    -0.108384422423E+02   -0.13287E-02   -0.37897E-03  1136   0.452E-01    0.252E-02
DAV:   9    -0.108385472669E+02   -0.10502E-03   -0.10667E-04   728   0.831E-02
   1 F= -.10838547E+02 E0= -.10838537E+02  d E =-.108385E+02
