   2   2   0   0
  0.1529437E+02  0.3691622E-09  0.3691622E-09  0.3691622E-09  0.5000000E-15
  1.000000000000000E-004
  CAR 
 unknown system                          
     22.68765401     -6.61531291  301      8.98654065      1.00000000
     -6.615  0.0000E+00  0.0000E+00
     -6.518  0.0000E+00  0.0000E+00
     -6.420  0.0000E+00  0.0000E+00
     -6.322  0.0000E+00  0.0000E+00
     -6.225  0.0000E+00  0.0000E+00
     -6.127  0.0000E+00  0.0000E+00
     -6.029  0.0000E+00  0.0000E+00
     -5.932  0.0000E+00  0.0000E+00
     -5.834  0.0000E+00  0.0000E+00
     -5.736  0.4418E-17  0.4316E-18
     -5.639  0.9195E-15  0.9024E-16
     -5.541  0.1177E-12  0.1159E-13
     -5.443  0.9431E-11  0.9327E-12
     -5.346  0.4732E-09  0.4716E-10
     -5.248  0.1489E-07  0.1502E-08
     -5.150  0.2945E-06  0.3027E-07
     -5.052  0.3668E-05  0.3885E-06
     -4.955  0.2889E-04  0.3211E-05
     -4.857  0.1456E-03  0.1744E-04
     -4.759  0.4838E-03  0.6469E-04
     -4.662  0.1140E-02  0.1761E-03
     -4.564  0.2163E-02  0.3873E-03
     -4.466  0.3635E-02  0.7423E-03
     -4.369  0.5379E-02  0.1268E-02
     -4.271  0.7265E-02  0.1977E-02
     -4.173  0.9892E-02  0.2944E-02
     -4.076  0.1254E-01  0.4168E-02
     -3.978  0.1236E-01  0.5375E-02
     -3.880  0.9325E-02  0.6286E-02
     -3.783  0.8290E-02  0.7096E-02
     -3.685  0.1323E-01  0.8388E-02
     -3.587  0.2160E-01  0.1050E-01
     -3.490  0.2606E-01  0.1304E-01
     -3.392  0.2281E-01  0.1527E-01
     -3.294  0.1565E-01  0.1680E-01
     -3.197  0.1073E-01  0.1785E-01
     -3.099  0.9799E-02  0.1881E-01
     -3.001  0.9765E-02  0.1976E-01
     -2.904  0.9173E-02  0.2066E-01
     -2.806  0.1149E-01  0.2178E-01
     -2.708  0.1967E-01  0.2370E-01
     -2.611  0.3005E-01  0.2663E-01
     -2.513  0.3470E-01  0.3002E-01
     -2.415  0.3214E-01  0.3316E-01
     -2.318  0.2951E-01  0.3604E-01
     -2.220  0.3072E-01  0.3904E-01
     -2.122  0.3124E-01  0.4210E-01
     -2.025  0.2648E-01  0.4468E-01
     -1.927  0.1960E-01  0.4660E-01
     -1.829  0.1657E-01  0.4822E-01
     -1.731  0.1896E-01  0.5007E-01
     -1.634  0.2427E-01  0.5244E-01
     -1.536  0.2686E-01  0.5506E-01
     -1.438  0.2341E-01  0.5735E-01
     -1.341  0.1973E-01  0.5928E-01
     -1.243  0.2259E-01  0.6148E-01
     -1.145  0.2759E-01  0.6418E-01
     -1.048  0.2694E-01  0.6681E-01
     -0.950  0.2368E-01  0.6912E-01
     -0.852  0.2596E-01  0.7166E-01
     -0.755  0.3435E-01  0.7501E-01
     -0.657  0.4283E-01  0.7920E-01
     -0.559  0.4718E-01  0.8381E-01
     -0.462  0.4673E-01  0.8837E-01
     -0.364  0.3942E-01  0.9222E-01
     -0.266  0.2632E-01  0.9479E-01
     -0.169  0.1744E-01  0.9649E-01
     -0.071  0.2170E-01  0.9861E-01
      0.027  0.3581E-01  0.1021E+00
      0.124  0.4747E-01  0.1067E+00
      0.222  0.4791E-01  0.1114E+00
      0.320  0.3895E-01  0.1152E+00
      0.417  0.2883E-01  0.1180E+00
      0.515  0.2415E-01  0.1204E+00
      0.613  0.2518E-01  0.1229E+00
      0.710  0.2848E-01  0.1256E+00
      0.808  0.3270E-01  0.1288E+00
      0.906  0.3978E-01  0.1327E+00
      1.003  0.4876E-01  0.1375E+00
      1.101  0.5468E-01  0.1428E+00
      1.199  0.5696E-01  0.1484E+00
      1.296  0.5915E-01  0.1542E+00
      1.394  0.5975E-01  0.1600E+00
      1.492  0.5212E-01  0.1651E+00
      1.590  0.3676E-01  0.1687E+00
      1.687  0.2413E-01  0.1710E+00
      1.785  0.2006E-01  0.1730E+00
      1.883  0.1862E-01  0.1748E+00
      1.980  0.1429E-01  0.1762E+00
      2.078  0.1166E-01  0.1774E+00
      2.176  0.1778E-01  0.1791E+00
      2.273  0.3096E-01  0.1821E+00
      2.371  0.4049E-01  0.1861E+00
      2.469  0.3969E-01  0.1900E+00
      2.566  0.3513E-01  0.1934E+00
      2.664  0.3502E-01  0.1968E+00
      2.762  0.3880E-01  0.2006E+00
      2.859  0.4356E-01  0.2049E+00
      2.957  0.4879E-01  0.2096E+00
      3.055  0.5388E-01  0.2149E+00
      3.152  0.5685E-01  0.2204E+00
      3.250  0.5473E-01  0.2258E+00
      3.348  0.4613E-01  0.2303E+00
      3.445  0.3677E-01  0.2339E+00
      3.543  0.3642E-01  0.2374E+00
      3.641  0.4598E-01  0.2419E+00
      3.738  0.5529E-01  0.2473E+00
      3.836  0.5699E-01  0.2529E+00
      3.934  0.5290E-01  0.2581E+00
      4.031  0.4711E-01  0.2627E+00
      4.129  0.4070E-01  0.2666E+00
      4.227  0.3328E-01  0.2699E+00
      4.324  0.2806E-01  0.2726E+00
      4.422  0.2843E-01  0.2754E+00
      4.520  0.3340E-01  0.2787E+00
      4.617  0.4139E-01  0.2827E+00
      4.715  0.5083E-01  0.2877E+00
      4.813  0.5997E-01  0.2935E+00
      4.911  0.6694E-01  0.3001E+00
      5.008  0.6796E-01  0.3067E+00
      5.106  0.6159E-01  0.3127E+00
      5.204  0.5208E-01  0.3178E+00
      5.301  0.4752E-01  0.3225E+00
      5.399  0.5175E-01  0.3275E+00
      5.497  0.5505E-01  0.3329E+00
      5.594  0.4622E-01  0.3374E+00
      5.692  0.2953E-01  0.3403E+00
      5.790  0.1617E-01  0.3419E+00
      5.887  0.1258E-01  0.3431E+00
      5.985  0.2200E-01  0.3452E+00
      6.083  0.4378E-01  0.3495E+00
      6.180  0.7051E-01  0.3564E+00
      6.278  0.9173E-01  0.3654E+00
      6.376  0.9916E-01  0.3751E+00
      6.473  0.9088E-01  0.3839E+00
      6.571  0.7500E-01  0.3913E+00
      6.669  0.6337E-01  0.3974E+00
      6.766  0.5903E-01  0.4032E+00
      6.864  0.5478E-01  0.4086E+00
      6.962  0.4626E-01  0.4131E+00
      7.059  0.4148E-01  0.4171E+00
      7.157  0.5008E-01  0.4220E+00
      7.255  0.6674E-01  0.4285E+00
      7.352  0.7731E-01  0.4361E+00
      7.450  0.7791E-01  0.4437E+00
      7.548  0.7344E-01  0.4509E+00
      7.645  0.6636E-01  0.4574E+00
      7.743  0.6021E-01  0.4632E+00
      7.841  0.5962E-01  0.4691E+00
      7.938  0.6071E-01  0.4750E+00
      8.036  0.5636E-01  0.4805E+00
      8.134  0.5163E-01  0.4855E+00
      8.232  0.5636E-01  0.4910E+00
      8.329  0.6482E-01  0.4974E+00
      8.427  0.6443E-01  0.5037E+00
      8.525  0.5707E-01  0.5092E+00
      8.622  0.5125E-01  0.5142E+00
      8.720  0.4910E-01  0.5190E+00
      8.818  0.5096E-01  0.5240E+00
      8.915  0.5491E-01  0.5294E+00
      9.013  0.5490E-01  0.5347E+00
      9.111  0.5062E-01  0.5397E+00
      9.208  0.4855E-01  0.5444E+00
      9.306  0.4924E-01  0.5492E+00
      9.404  0.4615E-01  0.5538E+00
      9.501  0.3813E-01  0.5575E+00
      9.599  0.3186E-01  0.5606E+00
      9.697  0.3091E-01  0.5636E+00
      9.794  0.3089E-01  0.5666E+00
      9.892  0.2759E-01  0.5693E+00
      9.990  0.2305E-01  0.5716E+00
     10.087  0.2247E-01  0.5738E+00
     10.185  0.2791E-01  0.5765E+00
     10.283  0.3598E-01  0.5800E+00
     10.380  0.4219E-01  0.5841E+00
     10.478  0.4921E-01  0.5889E+00
     10.576  0.6295E-01  0.5951E+00
     10.673  0.7667E-01  0.6026E+00
     10.771  0.7490E-01  0.6099E+00
     10.869  0.5827E-01  0.6156E+00
     10.966  0.4616E-01  0.6201E+00
     11.064  0.5172E-01  0.6251E+00
     11.162  0.6594E-01  0.6316E+00
     11.259  0.7131E-01  0.6385E+00
     11.357  0.6755E-01  0.6451E+00
     11.455  0.6927E-01  0.6519E+00
     11.553  0.8085E-01  0.6598E+00
     11.650  0.9302E-01  0.6689E+00
     11.748  0.9648E-01  0.6783E+00
     11.846  0.8677E-01  0.6868E+00
     11.943  0.6616E-01  0.6933E+00
     12.041  0.4579E-01  0.6977E+00
     12.139  0.3885E-01  0.7015E+00
     12.236  0.4948E-01  0.7064E+00
     12.334  0.7049E-01  0.7132E+00
     12.432  0.8955E-01  0.7220E+00
     12.529  0.9499E-01  0.7313E+00
     12.627  0.8135E-01  0.7392E+00
     12.725  0.5487E-01  0.7446E+00
     12.822  0.3029E-01  0.7475E+00
     12.920  0.1916E-01  0.7494E+00
     13.018  0.2429E-01  0.7518E+00
     13.115  0.4007E-01  0.7557E+00
     13.213  0.5378E-01  0.7609E+00
     13.311  0.5802E-01  0.7666E+00
     13.408  0.6145E-01  0.7726E+00
     13.506  0.7489E-01  0.7799E+00
     13.604  0.9273E-01  0.7890E+00
     13.701  0.9982E-01  0.7987E+00
     13.799  0.9079E-01  0.8076E+00
     13.897  0.7308E-01  0.8147E+00
     13.994  0.5831E-01  0.8204E+00
     14.092  0.5628E-01  0.8259E+00
     14.190  0.6891E-01  0.8327E+00
     14.287  0.8807E-01  0.8413E+00
     14.385  0.1019E+00  0.8512E+00
     14.483  0.1012E+00  0.8611E+00
     14.580  0.8639E-01  0.8695E+00
     14.678  0.6945E-01  0.8763E+00
     14.776  0.6021E-01  0.8822E+00
     14.874  0.5537E-01  0.8876E+00
     14.971  0.5074E-01  0.8926E+00
     15.069  0.5094E-01  0.8975E+00
     15.167  0.6024E-01  0.9034E+00
     15.264  0.7196E-01  0.9105E+00
     15.362  0.7425E-01  0.9177E+00
     15.460  0.6338E-01  0.9239E+00
     15.557  0.4524E-01  0.9283E+00
     15.655  0.2946E-01  0.9312E+00
     15.753  0.2513E-01  0.9337E+00
     15.850  0.3639E-01  0.9372E+00
     15.948  0.5614E-01  0.9427E+00
     16.046  0.6863E-01  0.9494E+00
     16.143  0.6560E-01  0.9558E+00
     16.241  0.5398E-01  0.9611E+00
     16.339  0.4480E-01  0.9654E+00
     16.436  0.4282E-01  0.9696E+00
     16.534  0.4694E-01  0.9742E+00
     16.632  0.5333E-01  0.9794E+00
     16.729  0.5681E-01  0.9850E+00
     16.827  0.5252E-01  0.9901E+00
     16.925  0.4103E-01  0.9941E+00
     17.022  0.2948E-01  0.9970E+00
     17.120  0.2365E-01  0.9993E+00
     17.218  0.2363E-01  0.1002E+01
     17.315  0.2734E-01  0.1004E+01
     17.413  0.3227E-01  0.1007E+01
     17.511  0.3419E-01  0.1011E+01
     17.608  0.3008E-01  0.1014E+01
     17.706  0.2292E-01  0.1016E+01
     17.804  0.1983E-01  0.1018E+01
     17.902  0.2472E-01  0.1020E+01
     17.999  0.3355E-01  0.1024E+01
     18.097  0.3777E-01  0.1027E+01
     18.195  0.3375E-01  0.1031E+01
     18.292  0.2786E-01  0.1033E+01
     18.390  0.2897E-01  0.1036E+01
     18.488  0.3578E-01  0.1040E+01
     18.585  0.3872E-01  0.1043E+01
     18.683  0.3406E-01  0.1047E+01
     18.781  0.2602E-01  0.1049E+01
     18.878  0.1869E-01  0.1051E+01
     18.976  0.1451E-01  0.1053E+01
     19.074  0.1404E-01  0.1054E+01
     19.171  0.1443E-01  0.1055E+01
     19.269  0.1412E-01  0.1057E+01
     19.367  0.1461E-01  0.1058E+01
     19.464  0.1514E-01  0.1060E+01
     19.562  0.1348E-01  0.1061E+01
     19.660  0.1070E-01  0.1062E+01
     19.757  0.8125E-02  0.1063E+01
     19.855  0.5225E-02  0.1063E+01
     19.953  0.2406E-02  0.1063E+01
     20.050  0.7321E-03  0.1064E+01
     20.148  0.1500E-03  0.1064E+01
     20.246  0.8694E-04  0.1064E+01
     20.343  0.4346E-03  0.1064E+01
     20.441  0.1742E-02  0.1064E+01
     20.539  0.4516E-02  0.1064E+01
     20.636  0.7564E-02  0.1065E+01
     20.734  0.8202E-02  0.1066E+01
     20.832  0.5759E-02  0.1066E+01
     20.929  0.2615E-02  0.1067E+01
     21.027  0.7663E-03  0.1067E+01
     21.125  0.1444E-03  0.1067E+01
     21.223  0.1743E-04  0.1067E+01
     21.320  0.1342E-05  0.1067E+01
     21.418  0.6565E-07  0.1067E+01
     21.516  0.2034E-08  0.1067E+01
     21.613  0.3977E-10  0.1067E+01
     21.711  0.4894E-12  0.1067E+01
     21.809  0.3783E-14  0.1067E+01
     21.906  0.1767E-16  0.1067E+01
     22.004  0.0000E+00  0.1067E+01
     22.102  0.0000E+00  0.1067E+01
     22.199  0.0000E+00  0.1067E+01
     22.297  0.0000E+00  0.1067E+01
     22.395  0.0000E+00  0.1067E+01
     22.492  0.0000E+00  0.1067E+01
     22.590  0.0000E+00  0.1067E+01
     22.688  0.0000E+00  0.1067E+01
