unknown system                          
   1.00000000000000     
     0.000000    2.733639    2.733639
     2.733639   -0.000000    2.733639
     2.733639    2.733639    0.000000
   Si
     2
Direct
  0.500000  0.500000  0.500000
  0.750000  0.750000  0.750000
 
   32   32   32
 0.85664872533E+00 0.87671973546E+00 0.93879471450E+00 0.10480527688E+01 0.12120469978E+01
 0.14396505573E+01 0.17401156379E+01 0.21218903141E+01 0.25904047076E+01 0.31443309999E+01
 0.37709211950E+01 0.44422123310E+01 0.51142071315E+01 0.57303307414E+01 0.62291054784E+01
 0.65546943931E+01 0.66679110822E+01 0.65546539489E+01 0.62290615593E+01 0.57303130881E+01
 0.51142082496E+01 0.44422059990E+01 0.37708981007E+01 0.31443062175E+01 0.25903962387E+01
 0.21219001823E+01 0.17401315281E+01 0.14396597773E+01 0.12120470562E+01 0.10480503434E+01
 0.93879586154E+00 0.87672286685E+00 0.87671973546E+00 0.91103036494E+00 0.98278236898E+00
 0.10975220780E+01 0.12621304047E+01 0.14837437734E+01 0.17687791122E+01 0.21217322151E+01
 0.25432084062E+01 0.30269849367E+01 0.35567452565E+01 0.41039383009E+01 0.46283657999E+01
 0.50823702687E+01 0.54182252221E+01 0.55970855050E+01 0.55970927750E+01 0.54182243191E+01
 0.50823272410E+01 0.46282892891E+01 0.41038769741E+01 0.35567329192E+01 0.30270074981E+01
 0.25432307034E+01 0.21217407110E+01 0.17687856005E+01 0.14837579788E+01 0.12621466717E+01
 0.10975323962E+01 0.98278784701E+00 0.91103488065E+00 0.87672196852E+00 0.93879471450E+00
 0.98278236898E+00 0.10603317356E+01 0.11767524158E+01 0.13377876074E+01 0.15486223597E+01
 0.18129947128E+01 0.21320956825E+01 0.25029151330E+01 0.29160494874E+01 0.33535960599E+01
 0.37882846203E+01 0.41850276076E+01 0.45053787326E+01 0.47142012959E+01 0.47867763842E+01
 0.47141998343E+01 0.45053827968E+01 0.41850375306E+01 0.37882887576E+01 0.33535863417E+01
 0.29160376836E+01 0.25029214228E+01 0.21321199183E+01 0.18130129994E+01 0.15486186729E+01
 0.13377749566E+01 0.11767514409E+01 0.10603411728E+01 0.98278683745E+00 0.93879189543E+00
 0.92458686113E+00 0.10480527688E+01 0.10975220780E+01 0.11767524158E+01 0.12903976238E+01
 0.14428948552E+01 0.16376382569E+01 0.18762067423E+01 0.21573872909E+01 0.24758115341E+01
 0.28203656237E+01 0.31729986352E+01 0.35088587432E+01 0.37985203961E+01 0.40123502885E+01
 0.41260964876E+01 0.41260827508E+01 0.40123254777E+01 0.37985175596E+01 0.35088920775E+01
 0.31730437270E+01 0.28203830072E+01 0.24757908238E+01 0.21573562936E+01 0.18761939883E+01
 0.16376417423E+01 0.14428958238E+01 0.12903900163E+01 0.11767448004E+01 0.10975200362E+01
 0.10480535858E+01 0.10244380172E+01 0.10244375387E+01 0.12120469978E+01 0.12621304047E+01
 0.13377876074E+01 0.14428948552E+01 0.15807500475E+01 0.17534254931E+01 0.19610553235E+01
 0.22009076434E+01 0.24662545951E+01 0.27453276915E+01 0.30209302620E+01 0.32713625831E+01
 0.34730055981E+01 0.36042594057E+01 0.36498624089E+01 0.36042783210E+01 0.34730077144E+01
 0.32713296117E+01 0.30208880619E+01 0.27453094533E+01 0.24662576890E+01 0.22009038892E+01
 0.19610325119E+01 0.17534003671E+01 0.15807428825E+01 0.14429061171E+01 0.13378026052E+01
 0.12621373487E+01 0.12120454785E+01 0.11838202461E+01 0.11747473981E+01 0.11838237510E+01
 0.14396505573E+01 0.14837437734E+01 0.15486223597E+01 0.16376382569E+01 0.17534254931E+01
 0.18973467372E+01 0.20687503727E+01 0.22640408673E+01 0.24758105531E+01 0.26924055200E+01
 0.28982907503E+01 0.30754833639E+01 0.32060840166E+01 0.32755025391E+01 0.32755107531E+01
 0.32061030555E+01 0.30754942750E+01 0.28982698339E+01 0.26923517821E+01 0.24757576400E+01
 0.22640250864E+01 0.20687695922E+01 0.18973661941E+01 0.17534231989E+01 0.16376277638E+01
 0.15486263428E+01 0.14837613514E+01 0.14396628988E+01 0.14128240405E+01 0.14002725923E+01
 0.14002756919E+01 0.14128248288E+01 0.17401156379E+01 0.17687791122E+01 0.18129947128E+01
 0.18762067423E+01 0.19610553235E+01 0.20687503727E+01 0.21982602122E+01 0.23455029744E+01
 0.25029143925E+01 0.26596714795E+01 0.28026252198E+01 0.29178835030E+01 0.29929373242E+01
 0.30190039104E+01 0.29929226433E+01 0.29178758771E+01 0.28026380306E+01 0.26596941604E+01
 0.25029284537E+01 0.23455010851E+01 0.21982482597E+01 0.20687413219E+01 0.19610602264E+01
 0.18762219326E+01 0.18130018188E+01 0.17687686863E+01 0.17401034133E+01 0.17232827463E+01
 0.17148525826E+01 0.17123353381E+01 0.17148390042E+01 0.17232780135E+01 0.21218903141E+01
 0.21217322151E+01 0.21320956825E+01 0.21573872909E+01 0.22009076434E+01 0.22640408673E+01
 0.23455029744E+01 0.24409551595E+01 0.25432077260E+01 0.26429902256E+01 0.27301014875E+01
 0.27947955571E+01 0.28293109305E+01 0.28293091316E+01 0.27947879239E+01 0.27300889078E+01
 0.26429871253E+01 0.25432322707E+01 0.24410010518E+01 0.23455324998E+01 0.22640237851E+01
 0.22008614596E+01 0.21573575453E+01 0.21320984384E+01 0.21217415139E+01 0.21218844782E+01
 0.21277563999E+01 0.21348030700E+01 0.21393568193E+01 0.21393535029E+01 0.21348027161E+01
 0.21277665646E+01 0.25904047076E+01 0.25432084062E+01 0.25029151330E+01 0.24758115341E+01
 0.24662545951E+01 0.24758105531E+01 0.25029143925E+01 0.25432077260E+01 0.25904026042E+01
 0.26373415924E+01 0.26770152197E+01 0.27034954676E+01 0.27127905128E+01 0.27034943110E+01
 0.26770228153E+01 0.26373554368E+01 0.25904044585E+01 0.25431897360E+01 0.25028933301E+01
 0.24758046099E+01 0.24662568129E+01 0.24758006589E+01 0.25028873992E+01 0.25431829960E+01
 0.25903970447E+01 0.26373487631E+01 0.26770191990E+01 0.27034940516E+01 0.27127918709E+01
 0.27034975603E+01 0.26770183915E+01 0.26373450839E+01 0.31443309999E+01 0.30269849367E+01
 0.29160494874E+01 0.28203656237E+01 0.27453276915E+01 0.26924055200E+01 0.26596714795E+01
 0.26429902256E+01 0.26373415924E+01 0.26378822040E+01 0.26406093484E+01 0.26427036200E+01
 0.26427060429E+01 0.26406162485E+01 0.26378959514E+01 0.26373622490E+01 0.26430000783E+01
 0.26596468303E+01 0.26923565871E+01 0.27453012138E+01 0.28203875327E+01 0.29160871584E+01
 0.30269896300E+01 0.31442992544E+01 0.32571201647E+01 0.33541254337E+01 0.34251909307E+01
 0.34627439601E+01 0.34627376670E+01 0.34251809840E+01 0.33541320808E+01 0.32571518022E+01
 0.37709211950E+01 0.35567452565E+01 0.33535960599E+01 0.31729986352E+01 0.30209302620E+01
 0.28982907503E+01 0.28026252198E+01 0.27301014875E+01 0.26770152197E+01 0.26406093484E+01
 0.26192612729E+01 0.26122261731E+01 0.26192823491E+01 0.26406143857E+01 0.26769981214E+01
 0.27300975048E+01 0.28026480341E+01 0.28983131449E+01 0.30209345588E+01 0.31729970108E+01
 0.33535950837E+01 0.35567370906E+01 0.37709133572E+01 0.39803084777E+01 0.41672242936E+01
 0.43148084801E+01 0.44093504459E+01 0.44419152743E+01 0.44093764980E+01 0.43148225260E+01
 0.41672139573E+01 0.39803003825E+01 0.44422123310E+01 0.41039383009E+01 0.37882846203E+01
 0.35088587432E+01 0.32713625831E+01 0.30754833639E+01 0.29178835030E+01 0.27947955571E+01
 0.27034954676E+01 0.26427036200E+01 0.26122261731E+01 0.26122349579E+01 0.26427147194E+01
 0.27034883826E+01 0.27947761684E+01 0.29178735495E+01 0.30754968057E+01 0.32714004424E+01
 0.35089015462E+01 0.37882887971E+01 0.41038803637E+01 0.44421401676E+01 0.47820395824E+01
 0.50977765267E+01 0.53628268724E+01 0.55539145697E+01 0.56539800823E+01 0.56540088731E+01
 0.55539507571E+01 0.53628060361E+01 0.50977316543E+01 0.47820513419E+01 0.51142071315E+01
 0.46283657999E+01 0.41850276076E+01 0.37985203961E+01 0.34730055981E+01 0.32060840166E+01
 0.29929373242E+01 0.28293109305E+01 0.27127905128E+01 0.26427060429E+01 0.26192823491E+01
 0.26427147194E+01 0.27127909162E+01 0.28293011788E+01 0.29929370049E+01 0.32061004844E+01
 0.34730166714E+01 0.37985060196E+01 0.41850013721E+01 0.46283541833E+01 0.51142076327E+01
 0.56169667064E+01 0.61021843977E+01 0.65315007312E+01 0.68684028408E+01 0.70832966632E+01
 0.71571089301E+01 0.70832900494E+01 0.68684149171E+01 0.65315403809E+01 0.61022253572E+01
 0.56169822612E+01 0.57303307414E+01 0.50823702687E+01 0.45053787326E+01 0.40123502885E+01
 0.36042594057E+01 0.32755025391E+01 0.30190039104E+01 0.28293091316E+01 0.27034943110E+01
 0.26406162485E+01 0.26406143857E+01 0.27034883826E+01 0.28293011788E+01 0.30190042773E+01
 0.32755229684E+01 0.36042876341E+01 0.40123471899E+01 0.45053300036E+01 0.50823269218E+01
 0.57303528316E+01 0.64211607644E+01 0.71124182731E+01 0.77529979008E+01 0.82903496627E+01
 0.86778304250E+01 0.88807747938E+01 0.88807753638E+01 0.86778568199E+01 0.82904173302E+01
 0.77530511564E+01 0.71123967726E+01 0.64210959912E+01 0.62291054784E+01 0.54182252221E+01
 0.47142012959E+01 0.41260964876E+01 0.36498624089E+01 0.32755107531E+01 0.29929226433E+01
 0.27947879239E+01 0.26770228153E+01 0.26378959514E+01 0.26769981214E+01 0.27947761684E+01
 0.29929370049E+01 0.32755229684E+01 0.36498555234E+01 0.41260921715E+01 0.47142194080E+01
 0.54182518211E+01 0.62291199157E+01 0.71192067349E+01 0.80413487325E+01 0.89331020460E+01
 0.97247416016E+01 0.10348616245E+02 0.10748181303E+02 0.10885784416E+02 0.10748191909E+02
 0.10348628757E+02 0.97247441847E+01 0.89330931944E+01 0.80413395092E+01 0.71192009945E+01
 0.65546943931E+01 0.55970855050E+01 0.47867763842E+01 0.41260827508E+01 0.36042783210E+01
 0.32061030555E+01 0.29178758771E+01 0.27300889078E+01 0.26373554368E+01 0.26373622490E+01
 0.27300975048E+01 0.29178735495E+01 0.32061004844E+01 0.36042876341E+01 0.41260921715E+01
 0.47867758080E+01 0.55970987932E+01 0.65547467136E+01 0.76365557737E+01 0.87950954405E+01
 0.99610507433E+01 0.11050170528E+02 0.11972709253E+02 0.12644405401E+02 0.12998730660E+02
 0.12998681704E+02 0.12644317720E+02 0.11972687019E+02 0.11050236023E+02 0.99611233440E+01
 0.87950960743E+01 0.76364960037E+01 0.66679110822E+01 0.55970927750E+01 0.47141998343E+01
 0.40123254777E+01 0.34730077144E+01 0.30754942750E+01 0.28026380306E+01 0.26429871253E+01
 0.25904044585E+01 0.26430000783E+01 0.28026480341E+01 0.30754968057E+01 0.34730166714E+01
 0.40123471899E+01 0.47142194080E+01 0.55970987932E+01 0.66679175965E+01 0.79122544122E+01
 0.92880978830E+01 0.10725690497E+02 0.12132486748E+02 0.13400684511E+02 0.14417053337E+02
 0.15077338387E+02 0.15306275123E+02 0.15077323308E+02 0.14417055575E+02 0.13400717874E+02
 0.12132521244E+02 0.10725690894E+02 0.92880692779E+01 0.79122299684E+01 0.65546539489E+01
 0.54182243191E+01 0.45053827968E+01 0.37985175596E+01 0.32713296117E+01 0.28982698339E+01
 0.26596941604E+01 0.25432322707E+01 0.25431897360E+01 0.26596468303E+01 0.28983131449E+01
 0.32714004424E+01 0.37985060196E+01 0.45053300036E+01 0.54182518211E+01 0.65547467136E+01
 0.79122544122E+01 0.94596502872E+01 0.11134363914E+02 0.12844608006E+02 0.14473561935E+02
 0.15883423692E+02 0.16922508875E+02 0.17472572421E+02 0.17472644877E+02 0.16922630560E+02
 0.15883432982E+02 0.14473445245E+02 0.12844515720E+02 0.11134398150E+02 0.94597232585E+01
 0.79122308793E+01 0.62290615593E+01 0.50823272410E+01 0.41850375306E+01 0.35088920775E+01
 0.30208880619E+01 0.26923517821E+01 0.25029284537E+01 0.24410010518E+01 0.25028933301E+01
 0.26923565871E+01 0.30209345588E+01 0.35089015462E+01 0.41850013721E+01 0.50823269218E+01
 0.62291199157E+01 0.76365557737E+01 0.92880978830E+01 0.11134363914E+02 0.13093323519E+02
 0.15051377004E+02 0.16854386510E+02 0.18307852635E+02 0.19249728757E+02 0.19575765091E+02
 0.19249703840E+02 0.18307835289E+02 0.16854371534E+02 0.15051337418E+02 0.13093283527E+02
 0.11134362981E+02 0.92881031230E+01 0.76365120606E+01 0.57303130881E+01 0.46282892891E+01
 0.37882887576E+01 0.31730437270E+01 0.27453094533E+01 0.24757576400E+01 0.23455010851E+01
 0.23455324998E+01 0.24758046099E+01 0.27453012138E+01 0.31729970108E+01 0.37882887971E+01
 0.46283541833E+01 0.57303528316E+01 0.71192067349E+01 0.87950954405E+01 0.10725690497E+02
 0.12844608006E+02 0.15051377004E+02 0.17194081360E+02 0.19051321209E+02 0.20419505068E+02
 0.21145657885E+02 0.21145568163E+02 0.20419371182E+02 0.19051334448E+02 0.17194195421E+02
 0.15051400909E+02 0.12844508978E+02 0.10725617541E+02 0.87951260636E+01 0.71192462286E+01
 0.51142082496E+01 0.41038769741E+01 0.33535863417E+01 0.28203830072E+01 0.24662576890E+01
 0.22640250864E+01 0.21982482597E+01 0.22640237851E+01 0.24662568129E+01 0.28203875327E+01
 0.33535950837E+01 0.41038803637E+01 0.51142076327E+01 0.64211607644E+01 0.80413487325E+01
 0.99610507433E+01 0.12132486748E+02 0.14473561935E+02 0.16854386510E+02 0.19051321209E+02
 0.20828022787E+02 0.21986859797E+02 0.22389989844E+02 0.21986886567E+02 0.20828013785E+02
 0.19051262464E+02 0.16854343563E+02 0.14473580106E+02 0.12132528683E+02 0.99610627054E+01
 0.80413334921E+01 0.64211506359E+01 0.44422059990E+01 0.35567329192E+01 0.29160376836E+01
 0.24757908238E+01 0.22009038892E+01 0.20687695922E+01 0.20687413219E+01 0.22008614596E+01
 0.24758006589E+01 0.29160871584E+01 0.35567370906E+01 0.44421401676E+01 0.56169667064E+01
 0.71124182731E+01 0.89331020460E+01 0.11050170528E+02 0.13400684511E+02 0.15883423692E+02
 0.18307852635E+02 0.20419505068E+02 0.21986859797E+02 0.22824307618E+02 0.22824355461E+02
 0.21986887994E+02 0.20419378950E+02 0.18307681748E+02 0.15883413579E+02 0.13400820773E+02
 0.11050254362E+02 0.89330568893E+01 0.71123682636E+01 0.56170082517E+01 0.37708981007E+01
 0.30270074981E+01 0.25029214228E+01 0.21573562936E+01 0.19610325119E+01 0.18973661941E+01
 0.19610602264E+01 0.21573575453E+01 0.25028873992E+01 0.30269896300E+01 0.37709133572E+01
 0.47820395824E+01 0.61021843977E+01 0.77529979008E+01 0.97247416016E+01 0.11972709253E+02
 0.14417053337E+02 0.16922508875E+02 0.19249728757E+02 0.21145657885E+02 0.22389989844E+02
 0.22824355461E+02 0.22389936237E+02 0.21145588918E+02 0.19249695820E+02 0.16922525969E+02
 0.14417081228E+02 0.11972714852E+02 0.97247465288E+01 0.77530303105E+01 0.61022180587E+01
 0.47820370474E+01 0.31443062175E+01 0.25432307034E+01 0.21321199183E+01 0.18761939883E+01
 0.17534003671E+01 0.17534231989E+01 0.18762219326E+01 0.21320984384E+01 0.25431829960E+01
 0.31442992544E+01 0.39803084777E+01 0.50977765267E+01 0.65315007312E+01 0.82903496627E+01
 0.10348616245E+02 0.12644405401E+02 0.15077338387E+02 0.17472572421E+02 0.19575765091E+02
 0.21145568163E+02 0.21986886567E+02 0.21986887994E+02 0.21145588918E+02 0.19575817912E+02
 0.17472622893E+02 0.15077341846E+02 0.12644377337E+02 0.10348618999E+02 0.82904012074E+01
 0.65315430572E+01 0.50977606886E+01 0.39802704085E+01 0.25903962387E+01 0.21217407110E+01
 0.18130129994E+01 0.16376417423E+01 0.15807428825E+01 0.16376277638E+01 0.18130018188E+01
 0.21217415139E+01 0.25903970447E+01 0.32571201647E+01 0.41672242936E+01 0.53628268724E+01
 0.68684028408E+01 0.86778304250E+01 0.10748181303E+02 0.12998730660E+02 0.15306275123E+02
 0.17472644877E+02 0.19249703840E+02 0.20419371182E+02 0.20828013785E+02 0.20419378950E+02
 0.19249695820E+02 0.17472622893E+02 0.15306275427E+02 0.12998771286E+02 0.10748232393E+02
 0.86778556882E+01 0.68684059962E+01 0.53628351342E+01 0.41672438537E+01 0.32571334413E+01
 0.21219001823E+01 0.17687856005E+01 0.15486186729E+01 0.14428958238E+01 0.14429061171E+01
 0.15486263428E+01 0.17687686863E+01 0.21218844782E+01 0.26373487631E+01 0.33541254337E+01
 0.43148084801E+01 0.55539145697E+01 0.70832966632E+01 0.88807747938E+01 0.10885784416E+02
 0.12998681704E+02 0.15077323308E+02 0.16922630560E+02 0.18307835289E+02 0.19051334448E+02
 0.19051262464E+02 0.18307681748E+02 0.16922525969E+02 0.15077341846E+02 0.12998771286E+02
 0.10885840752E+02 0.88807723827E+01 0.70832981622E+01 0.55539561555E+01 0.43148486147E+01
 0.33541275872E+01 0.26373415442E+01 0.17401315281E+01 0.14837579788E+01 0.13377749566E+01
 0.12903900163E+01 0.13378026052E+01 0.14837613514E+01 0.17401034133E+01 0.21277563999E+01
 0.26770191990E+01 0.34251909307E+01 0.44093504459E+01 0.56539800823E+01 0.71571089301E+01
 0.88807753638E+01 0.10748191909E+02 0.12644317720E+02 0.14417055575E+02 0.15883432982E+02
 0.16854371534E+02 0.17194195421E+02 0.16854343563E+02 0.15883413579E+02 0.14417081228E+02
 0.12644377337E+02 0.10748232393E+02 0.88807723827E+01 0.71571015698E+01 0.56540042150E+01
 0.44093769372E+01 0.34251790568E+01 0.26769933690E+01 0.21277650556E+01 0.14396597773E+01
 0.12621466717E+01 0.11767514409E+01 0.11767448004E+01 0.12621373487E+01 0.14396628988E+01
 0.17232827463E+01 0.21348030700E+01 0.27034940516E+01 0.34627439601E+01 0.44419152743E+01
 0.56540088731E+01 0.70832900494E+01 0.86778568199E+01 0.10348628757E+02 0.11972687019E+02
 0.13400717874E+02 0.14473445245E+02 0.15051337418E+02 0.15051400909E+02 0.14473580106E+02
 0.13400820773E+02 0.11972714852E+02 0.10348618999E+02 0.86778556882E+01 0.70832981622E+01
 0.56540042150E+01 0.44418967031E+01 0.34627283092E+01 0.27034860078E+01 0.21347929299E+01
 0.17232699259E+01 0.12120470562E+01 0.10975323962E+01 0.10603411728E+01 0.10975200362E+01
 0.12120454785E+01 0.14128240405E+01 0.17148525826E+01 0.21393568193E+01 0.27127918709E+01
 0.34627376670E+01 0.44093764980E+01 0.55539507571E+01 0.68684149171E+01 0.82904173302E+01
 0.97247441847E+01 0.11050236023E+02 0.12132521244E+02 0.12844515720E+02 0.13093283527E+02
 0.12844508978E+02 0.12132528683E+02 0.11050254362E+02 0.97247465288E+01 0.82904012074E+01
 0.68684059962E+01 0.55539561555E+01 0.44093769372E+01 0.34627283092E+01 0.27127888203E+01
 0.21393606864E+01 0.17148469106E+01 0.14128119188E+01 0.10480503434E+01 0.98278784701E+00
 0.98278683745E+00 0.10480535858E+01 0.11838202461E+01 0.14002725923E+01 0.17123353381E+01
 0.21393535029E+01 0.27034975603E+01 0.34251809840E+01 0.43148225260E+01 0.53628060361E+01
 0.65315403809E+01 0.77530511564E+01 0.89330931944E+01 0.99611233440E+01 0.10725690894E+02
 0.11134398150E+02 0.11134362981E+02 0.10725617541E+02 0.99610627054E+01 0.89330568893E+01
 0.77530303105E+01 0.65315430572E+01 0.53628351342E+01 0.43148486147E+01 0.34251790568E+01
 0.27034860078E+01 0.21393606864E+01 0.17123529071E+01 0.14002763621E+01 0.11838123409E+01
 0.93879586154E+00 0.91103488065E+00 0.93879189543E+00 0.10244380172E+01 0.11747473981E+01
 0.14002756919E+01 0.17148390042E+01 0.21348027161E+01 0.26770183915E+01 0.33541320808E+01
 0.41672139573E+01 0.50977316543E+01 0.61022253572E+01 0.71123967726E+01 0.80413395092E+01
 0.87950960743E+01 0.92880692779E+01 0.94597232585E+01 0.92881031230E+01 0.87951260636E+01
 0.80413334921E+01 0.71123682636E+01 0.61022180587E+01 0.50977606886E+01 0.41672438537E+01
 0.33541275872E+01 0.26769933690E+01 0.21347929299E+01 0.17148469106E+01 0.14002763621E+01
 0.11747357171E+01 0.10244321352E+01 0.87672286685E+00 0.87672196852E+00 0.92458686113E+00
 0.10244375387E+01 0.11838237510E+01 0.14128248288E+01 0.17232780135E+01 0.21277665646E+01
 0.26373450839E+01 0.32571518022E+01 0.39803003825E+01 0.47820513419E+01 0.56169822612E+01
 0.64210959912E+01 0.71192009945E+01 0.76364960037E+01 0.79122299684E+01 0.79122308793E+01
 0.76365120606E+01 0.71192462286E+01 0.64211506359E+01 0.56170082517E+01 0.47820370474E+01
 0.39802704085E+01 0.32571334413E+01 0.26373415442E+01 0.21277650556E+01 0.17232699259E+01
 0.14128119188E+01 0.11838123409E+01 0.10244321352E+01 0.92458685927E+00 0.87672248874E+00
 0.91103309241E+00 0.98278386077E+00 0.10975230716E+01 0.12621321594E+01 0.14837456865E+01
 0.17687800233E+01 0.21217327272E+01 0.25432095996E+01 0.30269861608E+01 0.35567455440E+01
 0.41039385734E+01 0.46283672798E+01 0.50823720792E+01 0.54182259839E+01 0.55970859950E+01
 0.55970946143E+01 0.54182273205E+01 0.50823303529E+01 0.46282927171E+01 0.41038808834E+01
 0.35567353562E+01 0.30270061327E+01 0.25432256226E+01 0.21217334545E+01 0.17687769151E+01
 0.14837487744E+01 0.12621395392E+01 0.10975294510E+01 0.98278813357E+00 0.91103615827E+00
 0.87672377068E+00 0.91103309241E+00 0.95356448565E+00 0.10287627648E+01 0.11420045535E+01
 0.12991119011E+01 0.15053214732E+01 0.17643424755E+01 0.20772604518E+01 0.24409553024E+01
 0.28459988658E+01 0.32746344203E+01 0.37000073474E+01 0.40877932811E+01 0.44005986551E+01
 0.46043742790E+01 0.46751846511E+01 0.46043798990E+01 0.44005722739E+01 0.40877315591E+01
 0.36999624064E+01 0.32746428162E+01 0.28460281771E+01 0.24409524676E+01 0.20772273847E+01
 0.17643267693E+01 0.15053440376E+01 0.12991423907E+01 0.11420117110E+01 0.10287553611E+01
 0.95356665042E+00 0.91104352803E+00 0.89732918305E+00 0.98278386077E+00 0.10287627648E+01
 0.11029787900E+01 0.12102903394E+01 0.13552895848E+01 0.15413969173E+01 0.17700730350E+01
 0.20399261867E+01 0.23455032496E+01 0.26758609974E+01 0.30134983028E+01 0.33345550084E+01
 0.36109990050E+01 0.38147905579E+01 0.39231038737E+01 0.39231033152E+01 0.38147890158E+01
 0.36109997850E+01 0.33345641742E+01 0.30135149239E+01 0.26758738754E+01 0.23455042337E+01
 0.20399212067E+01 0.17700729334E+01 0.15414026028E+01 0.13552937414E+01 0.12102894102E+01
 0.11029755084E+01 0.10287597071E+01 0.98278138853E+00 0.96095992741E+00 0.96096101997E+00
 0.10975230716E+01 0.11420045535E+01 0.12102903394E+01 0.13065821970E+01 0.14343341595E+01
 0.15955360388E+01 0.17900997237E+01 0.20151378518E+01 0.22640420012E+01 0.25255831226E+01
 0.27835756784E+01 0.30177343471E+01 0.32060650175E+01 0.33285233599E+01 0.33710168393E+01
 0.33284896580E+01 0.32060473227E+01 0.30177641384E+01 0.27836229946E+01 0.25255959637E+01
 0.22640132860E+01 0.20151102576E+01 0.17901068781E+01 0.15955625166E+01 0.14343426843E+01
 0.13065625759E+01 0.12102653375E+01 0.11419963556E+01 0.10975309474E+01 0.10728132227E+01
 0.10649237070E+01 0.10728038289E+01 0.12621321594E+01 0.12991119011E+01 0.13552895848E+01
 0.14343341595E+01 0.15389212128E+01 0.16701936639E+01 0.18272384178E+01 0.20064591579E+01
 0.22009081170E+01 0.23998628624E+01 0.25890629794E+01 0.27519616745E+01 0.28720557386E+01
 0.29358878821E+01 0.29358798914E+01 0.28720434499E+01 0.27519615353E+01 0.25890700593E+01
 0.23998580798E+01 0.22008864658E+01 0.20064361132E+01 0.18272283004E+01 0.16701936865E+01
 0.15389199506E+01 0.14343269716E+01 0.13552810279E+01 0.12991079175E+01 0.12621341215E+01
 0.12403937715E+01 0.12305011543E+01 0.12304988899E+01 0.12403892354E+01 0.14837456865E+01
 0.15053214732E+01 0.15413969173E+01 0.15955360388E+01 0.16701936639E+01 0.17662502357E+01
 0.18825014717E+01 0.20151371464E+01 0.21573865761E+01 0.22995578737E+01 0.24296851831E+01
 0.25349219554E+01 0.26035960682E+01 0.26274869855E+01 0.26036213284E+01 0.25349534100E+01
 0.24296931608E+01 0.22995302861E+01 0.21573503256E+01 0.20151316688E+01 0.18825279562E+01
 0.17662685885E+01 0.16701770335E+01 0.15955063475E+01 0.15413916835E+01 0.15053422575E+01
 0.14837600124E+01 0.14725256890E+01 0.14677238214E+01 0.14664873972E+01 0.14677439987E+01
 0.14725375337E+01 0.17687800233E+01 0.17643424755E+01 0.17700730350E+01 0.17900997237E+01
 0.18272384178E+01 0.18825014717E+01 0.19546506882E+01 0.20399261848E+01 0.21320953771E+01
 0.22228896854E+01 0.23028601345E+01 0.23626722121E+01 0.23947273181E+01 0.23947340304E+01
 0.23626887646E+01 0.23028756117E+01 0.22228932900E+01 0.21320912362E+01 0.20399317458E+01
 0.19546727077E+01 0.18825239748E+01 0.18272444101E+01 0.17900947575E+01 0.17700745991E+01
 0.17643534357E+01 0.17687865084E+01 0.17784791050E+01 0.17884807861E+01 0.17946699815E+01
 0.17946768492E+01 0.17884948574E+01 0.17784864142E+01 0.21217327272E+01 0.20772604518E+01
 0.20399261867E+01 0.20151378518E+01 0.20064591579E+01 0.20151371464E+01 0.20399261848E+01
 0.20772611880E+01 0.21217329108E+01 0.21667684668E+01 0.22054725588E+01 0.22316437713E+01
 0.22409007348E+01 0.22316444190E+01 0.22054623942E+01 0.21667535168E+01 0.21217390799E+01
 0.20772952186E+01 0.20399547810E+01 0.20151265565E+01 0.20064244217E+01 0.20151268434E+01
 0.20399559874E+01 0.20772961279E+01 0.21217371764E+01 0.21667483987E+01 0.22054561387E+01
 0.22316385445E+01 0.22408953774E+01 0.22316396675E+01 0.22054708850E+01 0.21667685338E+01
 0.25432095996E+01 0.24409553024E+01 0.23455032496E+01 0.22640420012E+01 0.22009081170E+01
 0.21573865761E+01 0.21320953771E+01 0.21217329108E+01 0.21218906278E+01 0.21277664592E+01
 0.21348045278E+01 0.21393583563E+01 0.21393630244E+01 0.21348091336E+01 0.21277624926E+01
 0.21218898985E+01 0.21217440491E+01 0.21320975728E+01 0.21573552695E+01 0.22008587640E+01
 0.22640193913E+01 0.23455260450E+01 0.24409942986E+01 0.25432260912E+01 0.26429805648E+01
 0.27300823845E+01 0.27947840503E+01 0.28293090205E+01 0.28293127104E+01 0.27947976563E+01
 0.27301042892E+01 0.26429934664E+01 0.30269861608E+01 0.28459988658E+01 0.26758609974E+01
 0.25255831226E+01 0.23998628624E+01 0.22995578737E+01 0.22228896854E+01 0.21667684668E+01
 0.21277664592E+01 0.21026686204E+01 0.20888100560E+01 0.20843960283E+01 0.20887987342E+01
 0.21026727913E+01 0.21278019760E+01 0.21668024318E+01 0.22228625353E+01 0.22994626030E+01
 0.23997777740E+01 0.25255901138E+01 0.26759463384E+01 0.28460743097E+01 0.30269979705E+01
 0.32060352324E+01 0.33681431969E+01 0.34979206054E+01 0.35819484640E+01 0.36110451383E+01
 0.35819429675E+01 0.34979197207E+01 0.33681611837E+01 0.32060614376E+01 0.35567455440E+01
 0.32746344203E+01 0.30134983028E+01 0.27835756784E+01 0.25890629794E+01 0.24296851831E+01
 0.23028601345E+01 0.22054725588E+01 0.21348045278E+01 0.20888100560E+01 0.20661364931E+01
 0.20661231933E+01 0.20887958605E+01 0.21348268905E+01 0.22055111231E+01 0.23028378910E+01
 0.24295670083E+01 0.25889318789E+01 0.27835594267E+01 0.30136181376E+01 0.32747788626E+01
 0.35568076694E+01 0.38433956084E+01 0.41134363794E+01 0.43436035080E+01 0.45117738005E+01
 0.46006188160E+01 0.46006094536E+01 0.45117513826E+01 0.43435904172E+01 0.41134524843E+01
 0.38434084542E+01 0.41039385734E+01 0.37000073474E+01 0.33345550084E+01 0.30177343471E+01
 0.27519616745E+01 0.25349219554E+01 0.23626722121E+01 0.22316437713E+01 0.21393583563E+01
 0.20843960283E+01 0.20661231933E+01 0.20843966463E+01 0.21393858220E+01 0.22316700096E+01
 0.23626115115E+01 0.25347515461E+01 0.27517968602E+01 0.30177199945E+01 0.33346966354E+01
 0.37001686106E+01 0.41040070702E+01 0.45270109559E+01 0.49415675191E+01 0.53145494968E+01
 0.56118877388E+01 0.58039010110E+01 0.58703158561E+01 0.58039077562E+01 0.56118762272E+01
 0.53145271344E+01 0.49415680584E+01 0.45270157058E+01 0.46283672798E+01 0.40877932811E+01
 0.36109990050E+01 0.32060650175E+01 0.28720557386E+01 0.26035960682E+01 0.23947273181E+01
 0.22409007348E+01 0.21393630244E+01 0.20887987342E+01 0.20887958605E+01 0.21393858220E+01
 0.22409486810E+01 0.23946839497E+01 0.26033798364E+01 0.28718019651E+01 0.32060122468E+01
 0.36111954765E+01 0.40880374135E+01 0.46284611709E+01 0.52122830476E+01 0.58063967017E+01
 0.63672383398E+01 0.68461672238E+01 0.71966831514E+01 0.73821012457E+01 0.73821219658E+01
 0.71967115655E+01 0.68461637184E+01 0.63672358269E+01 0.58064453654E+01 0.52123272090E+01
 0.50823720792E+01 0.44005986551E+01 0.38147905579E+01 0.33285233599E+01 0.29358878821E+01
 0.26274869855E+01 0.23947340304E+01 0.22316444190E+01 0.21348091336E+01 0.21026727913E+01
 0.21348268905E+01 0.22316700096E+01 0.23946839497E+01 0.26272816186E+01 0.29356239538E+01
 0.33284373798E+01 0.38149847112E+01 0.44009005834E+01 0.50825377040E+01 0.58415488100E+01
 0.66419274652E+01 0.74310623343E+01 0.81449765746E+01 0.87168611922E+01 0.90875402295E+01
 0.92160172448E+01 0.90875746475E+01 0.87168854095E+01 0.81449793499E+01 0.74310943643E+01
 0.66420067945E+01 0.58415707963E+01 0.54182259839E+01 0.46043742790E+01 0.39231038737E+01
 0.33710168393E+01 0.29358798914E+01 0.26036213284E+01 0.23626887646E+01 0.22054623942E+01
 0.21277624926E+01 0.21278019760E+01 0.22055111231E+01 0.23626115115E+01 0.26033798364E+01
 0.29356239538E+01 0.33709700041E+01 0.39233298879E+01 0.46046931441E+01 0.54183989705E+01
 0.63515657342E+01 0.73694377350E+01 0.84140594132E+01 0.94081336804E+01 0.10263573805E+02
 0.10893858079E+02 0.11228814985E+02 0.11228834647E+02 0.10893885125E+02 0.10263564431E+02
 0.94081133448E+01 0.84141022282E+01 0.73695424173E+01 0.63515979968E+01 0.55970859950E+01
 0.46751846511E+01 0.39231033152E+01 0.33284896580E+01 0.28720434499E+01 0.25349534100E+01
 0.23028756117E+01 0.21667535168E+01 0.21218898985E+01 0.21668024318E+01 0.23028378910E+01
 0.25347515461E+01 0.28718019651E+01 0.33284373798E+01 0.39233298879E+01 0.46755287895E+01
 0.55972883162E+01 0.66848010037E+01 0.79097527253E+01 0.92148461090E+01 0.10514910318E+02
 0.11703601281E+02 0.12665582873E+02 0.13294291466E+02 0.13513211742E+02 0.13294325176E+02
 0.12665591059E+02 0.11703568949E+02 0.10514917842E+02 0.92149710153E+01 0.79099322849E+01
 0.66848487914E+01 0.55970946143E+01 0.46043798990E+01 0.38147890158E+01 0.32060473227E+01
 0.27519615353E+01 0.24296931608E+01 0.22228932900E+01 0.21217390799E+01 0.21217440491E+01
 0.22228625353E+01 0.24295670083E+01 0.27517968602E+01 0.32060122468E+01 0.38149847112E+01
 0.46046931441E+01 0.55972883162E+01 0.68007869847E+01 0.81982564838E+01 0.97400904410E+01
 0.11341579562E+02 0.12885987307E+02 0.14233576899E+02 0.15238965969E+02 0.15777958605E+02
 0.15777977975E+02 0.15239009539E+02 0.14233613153E+02 0.12886009743E+02 0.11341640236E+02
 0.97402427598E+01 0.81984402368E+01 0.68008317298E+01 0.54182273205E+01 0.44005722739E+01
 0.36109997850E+01 0.30177641384E+01 0.25890700593E+01 0.22995302861E+01 0.21320912362E+01
 0.20772952186E+01 0.21320975728E+01 0.22994626030E+01 0.25889318789E+01 0.30177199945E+01
 0.36111954765E+01 0.44009005834E+01 0.54183989705E+01 0.66848010037E+01 0.81982564838E+01
 0.99232758514E+01 0.11784726491E+02 0.13666688997E+02 0.15416093672E+02 0.16854998678E+02
 0.17807727445E+02 0.18141818966E+02 0.17807721615E+02 0.16855064001E+02 0.15416205195E+02
 0.13666732210E+02 0.11784715903E+02 0.99233671209E+01 0.81984702914E+01 0.66849135171E+01
 0.50823303529E+01 0.40877315591E+01 0.33345641742E+01 0.27836229946E+01 0.23998580798E+01
 0.21573503256E+01 0.20399317458E+01 0.20399547810E+01 0.21573552695E+01 0.23997777740E+01
 0.27835594267E+01 0.33346966354E+01 0.40880374135E+01 0.50825377040E+01 0.63515657342E+01
 0.79097527253E+01 0.97400904410E+01 0.11784726491E+02 0.13939974347E+02 0.16054353163E+02
 0.17932740132E+02 0.19355221903E+02 0.20123375836E+02 0.20123337921E+02 0.19355208948E+02
 0.17932859977E+02 0.16054495167E+02 0.13939981896E+02 0.11784683389E+02 0.97402037390E+01