 running on    8 total cores
 distrk:  each k-point on    8 cores,    1 groups
 distr:  one band on    1 cores,    8 groups
 using from now: INCAR     
 vasp.5.4.4.18Apr17-6-g9f103f2a35 (build Dec 09 2018 21:25:21) complex          
  
 POSCAR found type information on POSCAR  Si
 POSCAR found :  1 types and       2 ions
 scaLAPACK will be used

 ----------------------------------------------------------------------------- 
|                                                                             |
|           W    W    AA    RRRRR   N    N  II  N    N   GGGG   !!!           |
|           W    W   A  A   R    R  NN   N  II  NN   N  G    G  !!!           |
|           W    W  A    A  R    R  N N  N  II  N N  N  G       !!!           |
|           W WW W  AAAAAA  RRRRR   N  N N  II  N  N N  G  GGG   !            |
|           WW  WW  A    A  R   R   N   NN  II  N   NN  G    G                |
|           W    W  A    A  R    R  N    N  II  N    N   GGGG   !!!           |
|                                                                             |
|      For optimal performance we recommend to set                            |
|        NCORE= 4 - approx SQRT( number of cores)                             |
|      NCORE specifies how many cores store one orbital (NPAR=cpu/NCORE).     |
|      This setting can  greatly improve the performance of VASP for DFT.     |
|      The default,   NCORE=1            might be grossly inefficient         |
|      on modern multi-core architectures or massively parallel machines.     |
|      Do your own testing !!!!                                               |
|      Unfortunately you need to use the default for GW and RPA calculations. |
|      (for HF NCORE is supported but not extensively tested yet)             |
|                                                                             |
 ----------------------------------------------------------------------------- 

 LDA part: xc-table for Pade appr. of Perdew
 POSCAR, INCAR and KPOINTS ok, starting setup
 FFT: planning ...
 WAVECAR not read
 entering main loop
       N       E                     dE             d eps       ncg     rms          rms(c)
DAV:   1     0.211933474269E+01    0.21193E+01   -0.24541E+03   576   0.514E+02
DAV:   2    -0.108539044117E+02   -0.12973E+02   -0.12254E+02   864   0.674E+01
DAV:   3    -0.110164099143E+02   -0.16251E+00   -0.16251E+00   720   0.947E+00
DAV:   4    -0.110169268340E+02   -0.51692E-03   -0.51692E-03   888   0.578E-01
DAV:   5    -0.110169271345E+02   -0.30045E-06   -0.30069E-06   720   0.127E-02    0.301E+00
DAV:   6    -0.108922237401E+02    0.12470E+00   -0.82393E-02   672   0.150E+00    0.178E+00
DAV:   7    -0.108352499607E+02    0.56974E-01   -0.15129E-01   696   0.215E+00    0.154E-01
DAV:   8    -0.108365726602E+02   -0.13227E-02   -0.41814E-03   624   0.480E-01    0.248E-02
DAV:   9    -0.108366634853E+02   -0.90825E-04   -0.96398E-05   440   0.794E-02
   1 F= -.10836663E+02 E0= -.10836579E+02  d E =-.108367E+02
 curvature:   0.00 expect dE= 0.000E+00 dE for cont linesearch  0.000E+00
 trial: gam= 0.00000 g(F)=  0.510E-45 g(S)=  0.162E-01 ort = 0.000E+00 (trialstep = 0.100E+01)
 search vector abs. value=  0.162E-01
 bond charge predicted
       N       E                     dE             d eps       ncg     rms          rms(c)
DAV:   1    -0.108454174688E+02   -0.88448E-02   -0.24569E-01   680   0.276E+00    0.314E-01
DAV:   2    -0.108412531957E+02    0.41643E-02   -0.34731E-03   704   0.385E-01    0.180E-01
DAV:   3    -0.108390681106E+02    0.21851E-02   -0.44337E-03   664   0.335E-01    0.226E-02
DAV:   4    -0.108390576109E+02    0.10500E-04   -0.48253E-05   296   0.627E-02
   2 F= -.10839058E+02 E0= -.10839006E+02  d E =-.239413E-02
 trial-energy change:   -0.002394  1 .order   -0.002744   -0.016162    0.010674
 step:   0.6022(harm=  0.6022)  dis= 0.00000  next Energy=   -10.841530 (dE=-0.487E-02)
 bond charge predicted
       N       E                     dE             d eps       ncg     rms          rms(c)
DAV:   1    -0.108422923884E+02   -0.32243E-02   -0.39807E-02   664   0.112E+00    0.127E-01
DAV:   2    -0.108416252405E+02    0.66715E-03   -0.55573E-04   680   0.154E-01    0.730E-02
DAV:   3    -0.108412822563E+02    0.34298E-03   -0.70216E-04   432   0.135E-01
   3 F= -.10841282E+02 E0= -.10841220E+02  d E =-.461877E-02
 curvature:  -0.30 expect dE=-0.383E-05 dE for cont linesearch -0.383E-05
 trial: gam= 0.00000 g(F)=  0.463E-45 g(S)=  0.127E-04 ort =-0.453E-03 (trialstep = 0.920E+00)
 search vector abs. value=  0.127E-04
 reached required accuracy - stopping structural energy minimisation
 writing wavefunctions
