    2    2   15    1
  0.2001288E+02  0.3839590E-09  0.3839590E-09  0.3839590E-09  0.5000000E-15
  1.000000000000000E-004
  CAR 
 unknown system                          
      8      4      8
 
  0.0000000E+00  0.0000000E+00  0.0000000E+00  0.3703704E-01
    1       -6.170505   1.000000
    2        5.564739   0.994727
    3        5.564770   0.994724
    4        5.564770   0.994724
    5        8.075676   0.000000
    6        8.075686   0.000000
    7        8.075686   0.000000
    8        8.471583   0.000000
 
  0.3333333E+00  0.6723763E-17  0.1473614E-18  0.2962963E+00
    1       -4.840619   1.000000
    2        0.308997   1.000000
    3        4.575878   1.000000
    4        4.575911   1.000000
    5        7.175617   0.000000
    6        9.045163   0.000000
    7        9.045206   0.000000
    8       13.250064   0.000000
 
  0.3333333E+00  0.3333333E+00  0.1682863E-16  0.2222222E+00
    1       -4.327196   1.000000
    2        0.563964   1.000000
    3        3.201033   1.000000
    4        3.201052   1.000000
    5        6.320934   0.002638
    6        7.589717   0.000000
    7       12.689547   0.000000
    8       12.689556   0.000000
 
 -0.3333333E+00  0.3333333E+00  0.1344753E-16  0.4444444E+00
    1       -3.023370   1.000000
    2       -1.136492   1.000000
    3        1.286984   1.000000
    4        3.496242   1.000000
    5        7.145330   0.000000
    6       11.352016   0.000000
    7       11.907053   0.000000
    8       12.471271   0.000000
