<?xml version="1.0" encoding="ISO-8859-1"?>
<modeling>
 <generator>
  <i name="program" type="string">vasp </i>
  <i name="version" type="string">5.4.4.18Apr17-6-g9f103f2a35  </i>
  <i name="subversion" type="string">(build Dec 09 2018 21:25:21) complex            parallel </i>
  <i name="platform" type="string">IFC18.0.1.163_CrayMPICH7.7.0_MKL18.0.1.163 </i>
  <i name="date" type="string">2019 03 20 </i>
  <i name="time" type="string">09:47:07 </i>
 </generator>
 <incar>
  <i type="string" name="PREC">normal</i>
  <i type="int" name="IBRION">     2</i>
  <i name="EDIFF">      0.00040000</i>
  <i name="EDIFFG">     -0.01000000</i>
  <i type="int" name="NSW">    15</i>
  <i type="int" name="ISIF">     3</i>
  <i name="ENCUT">    200.00000000</i>
  <i type="int" name="NBANDS">     8</i>
  <i type="logical" name="LREAL"> F  </i>
  <i type="int" name="ISMEAR">     0</i>
  <i name="SIGMA">      0.20000000</i>
  <v type="int" name="KPOINT_BSE">    -1     0     0     0</v>
 </incar>
 <structure name="primitive_cell" >
  <crystal>
   <varray name="basis" >
    <v>       0.00000000       2.71500000       2.71500000 </v>
    <v>       2.71500000       0.00000000       2.71500000 </v>
    <v>       2.71500000       2.71500000       0.00000000 </v>
   </varray>
   <i name="volume">     40.02575175 </i>
   <varray name="rec_basis" >
    <v>      -0.18416206       0.18416206       0.18416206 </v>
    <v>       0.18416206      -0.18416206       0.18416206 </v>
    <v>       0.18416206       0.18416206      -0.18416206 </v>
   </varray>
  </crystal>
  <varray name="positions" >
   <v>      -0.50000000      -0.50000000      -0.50000000 </v>
   <v>      -0.25000000      -0.25000000      -0.25000000 </v>
  </varray>
 </structure>
 <varray name="primitive_index" >
  <v type="int" >        1 </v>
  <v type="int" >        2 </v>
 </varray>
 <kpoints>
  <generation param="Monkhorst-Pack">
   <v type="int" name="divisions">       3        3        3 </v>
   <v name="usershift">      0.00000000       0.00000000       0.00000000 </v>
   <v name="genvec1">      0.33333333      -0.00000000       0.00000000 </v>
   <v name="genvec2">     -0.00000000       0.33333333      -0.00000000 </v>
   <v name="genvec3">      0.00000000       0.00000000       0.33333333 </v>
   <v name="shift">      0.00000000       0.00000000       0.00000000 </v>
  </generation>
  <varray name="kpointlist" >
   <v>       0.00000000       0.00000000       0.00000000 </v>
   <v>       0.33333333       0.00000000       0.00000000 </v>
   <v>       0.33333333       0.33333333       0.00000000 </v>
   <v>      -0.33333333       0.33333333       0.00000000 </v>
  </varray>
  <varray name="weights" >
   <v>       0.03703704 </v>
   <v>       0.29629630 </v>
   <v>       0.22222222 </v>
   <v>       0.44444444 </v>
  </varray>
 </kpoints>
 <parameters>
  <separator name="general" >
   <i type="string" name="SYSTEM">unknown system</i>
   <i type="logical" name="LCOMPAT"> F  </i>
  </separator>
  <separator name="electronic" >
   <i type="string" name="PREC">normal</i>
   <i name="ENMAX">    200.00000000</i>
   <i name="ENAUG">    322.06900000</i>
   <i name="EDIFF">      0.00040000</i>
   <i type="int" name="IALGO">    38</i>
   <i type="int" name="IWAVPR">    11</i>
   <i type="int" name="NBANDS">     8</i>
   <i name="NELECT">      8.00000000</i>
   <i type="int" name="TURBO">     0</i>
   <i type="int" name="IRESTART">     0</i>
   <i type="int" name="NREBOOT">     0</i>
   <i type="int" name="NMIN">     0</i>
   <i name="EREF">      0.00000000</i>
   <separator name="electronic smearing" >
    <i type="int" name="ISMEAR">     0</i>
    <i name="SIGMA">      0.20000000</i>
    <i name="KSPACING">      0.50000000</i>
    <i type="logical" name="KGAMMA"> T  </i>
   </separator>
   <separator name="electronic projectors" >
    <i type="logical" name="LREAL"> F  </i>
    <v name="ROPT">      0.00000000</v>
    <i type="int" name="LMAXPAW">  -100</i>
    <i type="int" name="LMAXMIX">     2</i>
    <i type="logical" name="NLSPLINE"> F  </i>
   </separator>
   <separator name="electronic startup" >
    <i type="int" name="ISTART">     0</i>
    <i type="int" name="ICHARG">     2</i>
    <i type="int" name="INIWAV">     1</i>
   </separator>
   <separator name="electronic spin" >
    <i type="int" name="ISPIN">     1</i>
    <i type="logical" name="LNONCOLLINEAR"> F  </i>
    <v name="MAGMOM">      1.00000000      1.00000000</v>
    <i name="NUPDOWN">     -1.00000000</i>
    <i type="logical" name="LSORBIT"> F  </i>
    <v name="SAXIS">      0.00000000      0.00000000      1.00000000</v>
    <i type="logical" name="LSPIRAL"> F  </i>
    <v name="QSPIRAL">      0.00000000      0.00000000      0.00000000</v>
    <i type="logical" name="LZEROZ"> F  </i>
   </separator>
   <separator name="electronic exchange-correlation" >
    <i type="logical" name="LASPH"> F  </i>
    <i type="logical" name="LMETAGGA"> F  </i>
   </separator>
   <separator name="electronic convergence" >
    <i type="int" name="NELM">    60</i>
    <i type="int" name="NELMDL">    -5</i>
    <i type="int" name="NELMIN">     2</i>
    <i name="ENINI">    200.00000000</i>
    <separator name="electronic convergence detail" >
     <i type="logical" name="LDIAG"> T  </i>
     <i type="logical" name="LSUBROT"> F  </i>
     <i name="WEIMIN">      0.00100000</i>
     <i name="EBREAK">      0.00001250</i>
     <i name="DEPER">      0.30000000</i>
     <i type="int" name="NRMM">     4</i>
     <i name="TIME">      0.40000000</i>
    </separator>
   </separator>
   <separator name="electronic mixer" >
    <i name="AMIX">      0.40000000</i>
    <i name="BMIX">      1.00000000</i>
    <i name="AMIN">      0.10000000</i>
    <i name="AMIX_MAG">      1.60000000</i>
    <i name="BMIX_MAG">      1.00000000</i>
    <separator name="electronic mixer details" >
     <i type="int" name="IMIX">     4</i>
     <i type="logical" name="MIXFIRST"> F  </i>
     <i type="int" name="MAXMIX">   -45</i>
     <i name="WC">    100.00000000</i>
     <i type="int" name="INIMIX">     1</i>
     <i type="int" name="MIXPRE">     1</i>
     <i type="int" name="MREMOVE">     5</i>
    </separator>
   </separator>
   <separator name="electronic dipolcorrection" >
    <i type="logical" name="LDIPOL"> F  </i>
    <i type="logical" name="LMONO"> F  </i>
    <i type="int" name="IDIPOL">     0</i>
    <i name="EPSILON">      1.00000000</i>
    <v name="DIPOL">   -100.00000000   -100.00000000   -100.00000000</v>
    <i name="EFIELD">      0.00000000</i>
   </separator>
  </separator>
  <separator name="grids" >
   <i type="int" name="NGX">    14</i>
   <i type="int" name="NGY">    14</i>
   <i type="int" name="NGZ">    14</i>
   <i type="int" name="NGXF">    28</i>
   <i type="int" name="NGYF">    28</i>
   <i type="int" name="NGZF">    28</i>
   <i type="logical" name="ADDGRID"> F  </i>
  </separator>
  <separator name="ionic" >
   <i type="int" name="NSW">    15</i>
   <i type="int" name="IBRION">     2</i>
   <i type="int" name="MDALGO">     0</i>
   <i type="int" name="ISIF">     3</i>
   <i name="PSTRESS">      0.00000000</i>
   <i name="EDIFFG">     -0.01000000</i>
   <i type="int" name="NFREE">     1</i>
   <i name="POTIM">      0.50000000</i>
   <i name="SMASS">     -3.00000000</i>
   <i name="SCALEE">      1.00000000</i>
  </separator>
  <separator name="ionic md" >
   <i name="TEBEG">      0.00010000</i>
   <i name="TEEND">      0.00010000</i>
   <i type="int" name="NBLOCK">     1</i>
   <i type="int" name="KBLOCK">    15</i>
   <i type="int" name="NPACO">   256</i>
   <i name="APACO">     16.00000000</i>
  </separator>
  <separator name="symmetry" >
   <i type="int" name="ISYM">     2</i>
   <i name="SYMPREC">      0.00001000</i>
  </separator>
  <separator name="dos" >
   <i type="int" name="LORBIT">     0</i>
   <v name="RWIGS">     -1.00000000</v>
   <i type="int" name="NEDOS">   301</i>
   <i name="EMIN">     10.00000000</i>
   <i name="EMAX">    -10.00000000</i>
   <i name="EFERMI">      0.00000000</i>
  </separator>
  <separator name="writing" >
   <i type="int" name="NWRITE">     2</i>
   <i type="logical" name="LWAVE"> T  </i>
   <i type="logical" name="LDOWNSAMPLE"> F  </i>
   <i type="logical" name="LCHARG"> T  </i>
   <i type="logical" name="LPARD"> F  </i>
   <i type="logical" name="LVTOT"> F  </i>
   <i type="logical" name="LVHAR"> F  </i>
   <i type="logical" name="LELF"> F  </i>
   <i type="logical" name="LOPTICS"> F  </i>
   <v name="STM">      0.00000000      0.00000000      0.00000000      0.00000000      0.00000000      0.00000000      0.00000000</v>
  </separator>
  <separator name="performance" >
   <i type="int" name="NPAR">     8</i>
   <i type="int" name="NSIM">     4</i>
   <i type="int" name="NBLK">    -1</i>
   <i type="logical" name="LPLANE"> T  </i>
   <i type="logical" name="LSCALAPACK"> T  </i>
   <i type="logical" name="LSCAAWARE"> F  </i>
   <i type="logical" name="LSCALU"> F  </i>
   <i type="logical" name="LASYNC"> F  </i>
   <i type="logical" name="LORBITALREAL"> F  </i>
  </separator>
  <separator name="miscellaneous" >
   <i type="int" name="IDIOT">     3</i>
   <i type="int" name="ISPECIAL">     0</i>
   <i type="logical" name="LMUSIC"> F  </i>
   <v name="POMASS">     28.08500000</v>
   <v name="DARWINR">      0.00000000</v>
   <v name="DARWINV">      1.00000000</v>
   <i type="logical" name="LCORR"> T  </i>
  </separator>
  <i type="logical" name="GGA_COMPAT"> T  </i>
  <i type="logical" name="LBERRY"> F  </i>
  <i type="int" name="ICORELEVEL">     0</i>
  <i type="logical" name="LDAU"> F  </i>
  <i type="int" name="I_CONSTRAINED_M">     0</i>
  <separator name="electronic exchange-correlation" >
   <i type="string" name="GGA">--</i>
   <i type="int" name="VOSKOWN">     0</i>
   <i type="logical" name="LHFCALC"> F  </i>
   <i type="string" name="PRECFOCK"></i>
   <i type="logical" name="LSYMGRAD"> F  </i>
   <i type="logical" name="LHFONE"> F  </i>
   <i type="logical" name="LRHFCALC"> F  </i>
   <i type="logical" name="LTHOMAS"> F  </i>
   <i type="logical" name="LMODELHF"> F  </i>
   <i name="ENCUT4O">     -1.00000000</i>
   <i type="int" name="EXXOEP">     0</i>
   <i type="int" name="FOURORBIT">     0</i>
   <i name="AEXX">      0.00000000</i>
   <i name="HFALPHA">      0.00000000</i>
   <i name="MCALPHA">      0.00000000</i>
   <i name="ALDAX">      1.00000000</i>
   <i name="AGGAX">      1.00000000</i>
   <i name="ALDAC">      1.00000000</i>
   <i name="AGGAC">      1.00000000</i>
   <i type="int" name="NKREDX">     1</i>
   <i type="int" name="NKREDY">     1</i>
   <i type="int" name="NKREDZ">     1</i>
   <i type="logical" name="SHIFTRED"> F  </i>
   <i type="logical" name="ODDONLY"> F  </i>
   <i type="logical" name="EVENONLY"> F  </i>
   <i type="int" name="LMAXFOCK">     0</i>
   <i type="int" name="NMAXFOCKAE">     0</i>
   <i type="logical" name="LFOCKAEDFT"> F  </i>
   <i name="HFSCREEN">      0.00000000</i>
   <i name="HFSCREENC">      0.00000000</i>
   <i type="int" name="NBANDSGWLOW">     0</i>
  </separator>
  <separator name="vdW DFT" >
   <i type="logical" name="LUSE_VDW"> F  </i>
   <i name="Zab_VDW">     -0.84910000</i>
   <i name="PARAM1">      0.12340000</i>
   <i name="PARAM2">      1.00000000</i>
   <i name="PARAM3">      0.00000000</i>
  </separator>
  <separator name="model GW" >
   <i type="int" name="MODEL_GW">     0</i>
   <i name="MODEL_EPS0">     12.00772552</i>
   <i name="MODEL_ALPHA">      1.00000000</i>
  </separator>
  <separator name="linear response parameters" >
   <i type="logical" name="LEPSILON"> F  </i>
   <i type="logical" name="LRPA"> F  </i>
   <i type="logical" name="LNABLA"> F  </i>
   <i type="logical" name="LVEL"> F  </i>
   <i type="int" name="KINTER">     0</i>
   <i name="CSHIFT">      0.10000000</i>
   <i name="OMEGAMAX">     -1.00000000</i>
   <i name="DEG_THRESHOLD">      0.00200000</i>
   <i name="RTIME">     -0.10000000</i>
   <i name="WPLASMAI">      0.00000000</i>
   <v name="DFIELD">      0.00000000      0.00000000      0.00000000</v>
   <v name="WPLASMA">      0.00000000      0.00000000      0.00000000      0.00000000      0.00000000      0.00000000      0.00000000      0.00000000      0.00000000</v>
  </separator>
  <separator name="orbital magnetization" >
   <i type="logical" name="NUCIND"> F  </i>
   <v name="MAGPOS">      0.00000000      0.00000000      0.00000000</v>
   <i type="logical" name="LNICSALL"> T  </i>
   <i type="logical" name="ORBITALMAG"> F  </i>
   <i type="logical" name="LMAGBLOCH"> F  </i>
   <i type="logical" name="LCHIMAG"> F  </i>
   <i type="logical" name="LGAUGE"> T  </i>
   <i type="int" name="MAGATOM">     0</i>
   <v name="MAGDIPOL">      0.00000000      0.00000000      0.00000000</v>
   <v name="AVECCONST">      0.00000000      0.00000000      0.00000000</v>
  </separator>
  <separator name="response functions" >
   <i type="logical" name="LADDER"> F  </i>
   <i type="logical" name="LRPAFORCE"> F  </i>
   <i type="logical" name="LFXC"> F  </i>
   <i type="logical" name="LHARTREE"> T  </i>
   <i type="int" name="IBSE">     0</i>
   <v type="int" name="KPOINT">    -1     0     0     0</v>
   <i type="logical" name="LTCTE"> F  </i>
   <i type="logical" name="LTETE"> F  </i>
   <i type="logical" name="LTRIPLET"> F  </i>
   <i type="logical" name="LFXCEPS"> F  </i>
   <i type="logical" name="LFXHEG"> F  </i>
   <i type="int" name="NATURALO">     2</i>
   <i type="logical" name="L2ORDER"> F  </i>
   <i type="logical" name="LMP2LT"> F  </i>
   <i type="logical" name="LUSEW"> F  </i>
   <i name="ENCUTGW">     -2.00000000</i>
   <i name="ENCUTGWSOFT">     -2.00000000</i>
   <i name="ENCUTLF">     -1.00000000</i>
   <i type="int" name="LMAXMP2">    -1</i>
   <i name="SCISSOR">      0.00000000</i>
   <i type="int" name="NOMEGA">     0</i>
   <i type="int" name="NOMEGAR">     0</i>
   <i type="int" name="NBANDSGW">    -1</i>
   <i type="int" name="NBANDSO">    -1</i>
   <i type="int" name="NBANDSV">    -1</i>
   <i type="int" name="NELM">     1</i>
   <i type="int" name="NELMHF">     1</i>
   <i type="int" name="DIM">     3</i>
   <i type="int" name="ANTIRES">     0</i>
   <i name="OMEGAMAX">    -30.00000000</i>
   <i name="OMEGAMIN">    -30.00000000</i>
   <i name="OMEGATL">   -200.00000000</i>
   <i type="int" name="OMEGAGRID">   140</i>
   <i name="CSHIFT">     -0.10000000</i>
   <i type="logical" name="SELFENERGY"> F  </i>
   <i type="logical" name="LSPECTRAL"> F  </i>
   <i type="logical" name="LSPECTRALGW"> F  </i>
   <i type="logical" name="LSINGLES"> F  </i>
   <i type="logical" name="LFERMIGW"> F  </i>
   <i type="logical" name="ODDONLYGW"> F  </i>
   <i type="logical" name="EVENONLYGW"> F  </i>
   <i type="int" name="NKREDLFX">     1</i>
   <i type="int" name="NKREDLFY">     1</i>
   <i type="int" name="NKREDLFZ">     1</i>
   <i type="int" name="MAXMEM">  2800</i>
   <i type="int" name="TELESCOPE">     0</i>
   <i type="int" name="TAUPAR">     1</i>
   <i type="int" name="OMEGAPAR">    -1</i>
   <i name="LAMBDA">      1.00000000</i>
  </separator>
  <separator name="External order field" >
   <i name="OFIELD_KAPPA">      0.00000000</i>
   <v name="OFIELD_K">      0.00000000      0.00000000      0.00000000</v>
   <i name="OFIELD_Q6_NEAR">      0.00000000</i>
   <i name="OFIELD_Q6_FAR">      0.00000000</i>
   <i name="OFIELD_A">      0.00000000</i>
  </separator>
 </parameters>
 <atominfo>
  <atoms>       2 </atoms>
  <types>       1 </types>
  <array name="atoms" >
   <dimension dim="1">ion</dimension>
   <field type="string">element</field>
   <field type="int">atomtype</field>
   <set>
    <rc><c>Si</c><c>   1</c></rc>
    <rc><c>Si</c><c>   1</c></rc>
   </set>
  </array>
  <array name="atomtypes" >
   <dimension dim="1">type</dimension>
   <field type="int">atomspertype</field>
   <field type="string">element</field>
   <field>mass</field>
   <field>valence</field>
   <field type="string">pseudopotential</field>
   <set>
    <rc><c>   2</c><c>Si</c><c>     28.08500000</c><c>      4.00000000</c><c> PAW_PBE Si 05Jan2001                   </c></rc>
   </set>
  </array>
 </atominfo>
 <structure name="initialpos" >
  <crystal>
   <varray name="basis" >
    <v>       0.00000000       2.71500000       2.71500000 </v>
    <v>       2.71500000       0.00000000       2.71500000 </v>
    <v>       2.71500000       2.71500000       0.00000000 </v>
   </varray>
   <i name="volume">     40.02575175 </i>
   <varray name="rec_basis" >
    <v>      -0.18416206       0.18416206       0.18416206 </v>
    <v>       0.18416206      -0.18416206       0.18416206 </v>
    <v>       0.18416206       0.18416206      -0.18416206 </v>
   </varray>
  </crystal>
  <varray name="positions" >
   <v>       0.50000000       0.50000000       0.50000000 </v>
   <v>       0.75000000       0.75000000       0.75000000 </v>
  </varray>
 </structure>
 <calculation>
  <scstep>
   <time name="dav">    0.04    0.04</time>
   <time name="total">    0.08    0.11</time>
   <energy>
    <i name="alphaZ">      3.36414203 </i>
    <i name="ewald">   -228.56352493 </i>
    <i name="hartreedc">    -11.00108243 </i>
    <i name="XCdc">    -18.60172597 </i>
    <i name="pawpsdc">     65.95520812 </i>
    <i name="pawaedc">    -30.76852678 </i>
    <i name="eentropy">     -0.02308096 </i>
    <i name="bandstr">     12.95471999 </i>
    <i name="atom">    206.11247263 </i>
    <i name="e_fr_energy">     -0.57139831 </i>
    <i name="e_wo_entrp">     -0.54831734 </i>
    <i name="e_0_energy">     -0.55985783 </i>
   </energy>
  </scstep>
  <scstep>
   <time name="dav">    0.07    0.09</time>
   <time name="total">    0.07    0.09</time>
   <energy>
    <i name="e_fr_energy">    -10.33159683 </i>
    <i name="e_wo_entrp">    -10.33152916 </i>
    <i name="e_0_energy">    -10.33156299 </i>
   </energy>
  </scstep>
  <scstep>
   <time name="dav">    0.05    0.06</time>
   <time name="total">    0.05    0.06</time>
   <energy>
    <i name="e_fr_energy">    -10.41329066 </i>
    <i name="e_wo_entrp">    -10.41324149 </i>
    <i name="e_0_energy">    -10.41326608 </i>
   </energy>
  </scstep>
  <scstep>
   <time name="dav">    0.06    0.06</time>
   <time name="total">    0.05    0.06</time>
   <energy>
    <i name="e_fr_energy">    -10.41338236 </i>
    <i name="e_wo_entrp">    -10.41333323 </i>
    <i name="e_0_energy">    -10.41335779 </i>
   </energy>
  </scstep>
  <scstep>
   <time name="dav">    0.05    0.05</time>
   <time name="total">    0.06    0.07</time>
   <energy>
    <i name="e_fr_energy">    -10.41338239 </i>
    <i name="e_wo_entrp">    -10.41333327 </i>
    <i name="e_0_energy">    -10.41335783 </i>
   </energy>
  </scstep>
  <scstep>
   <time name="dav">    0.04    0.04</time>
   <time name="total">    0.08    0.09</time>
   <energy>
    <i name="e_fr_energy">    -10.24693637 </i>
    <i name="e_wo_entrp">    -10.24661231 </i>
    <i name="e_0_energy">    -10.24677434 </i>
   </energy>
  </scstep>
  <scstep>
   <time name="dav">    0.04    0.04</time>
   <time name="total">    0.08    0.10</time>
   <energy>
    <i name="e_fr_energy">    -10.17317283 </i>
    <i name="e_wo_entrp">    -10.17093602 </i>
    <i name="e_0_energy">    -10.17205442 </i>
   </energy>
  </scstep>
  <scstep>
   <time name="dav">    0.04    0.04</time>
   <time name="total">    0.08    0.09</time>
   <energy>
    <i name="e_fr_energy">    -10.17590111 </i>
    <i name="e_wo_entrp">    -10.17416998 </i>
    <i name="e_0_energy">    -10.17503554 </i>
   </energy>
  </scstep>
  <scstep>
   <time name="dav">    0.02    0.02</time>
   <time name="total">    0.05    0.06</time>
   <energy>
    <i name="alphaZ">      3.36414203 </i>
    <i name="ewald">   -228.56352493 </i>
    <i name="hartreedc">    -15.68964689 </i>
    <i name="XCdc">    -17.84149515 </i>
    <i name="pawpsdc">     76.50531998 </i>
    <i name="pawaedc">    -41.57744111 </i>
    <i name="eentropy">     -0.00172120 </i>
    <i name="bandstr">      7.51582198 </i>
    <i name="atom">    206.11247263 </i>
    <i name="e_fr_energy">    -10.17607266 </i>
    <i name="e_wo_entrp">    -10.17435146 </i>
    <i name="e_0_energy">    -10.17521206 </i>
   </energy>
  </scstep>
  <structure>
   <crystal>
    <varray name="basis" >
     <v>       0.00000000       2.71500000       2.71500000 </v>
     <v>       2.71500000       0.00000000       2.71500000 </v>
     <v>       2.71500000       2.71500000       0.00000000 </v>
    </varray>
    <i name="volume">     40.02575175 </i>
    <varray name="rec_basis" >
     <v>      -0.18416206       0.18416206       0.18416206 </v>
     <v>       0.18416206      -0.18416206       0.18416206 </v>
     <v>       0.18416206       0.18416206      -0.18416206 </v>
    </varray>
   </crystal>
   <varray name="positions" >
    <v>       0.50000000       0.50000000       0.50000000 </v>
    <v>       0.75000000       0.75000000       0.75000000 </v>
   </varray>
  </structure>
  <varray name="forces" >
   <v>      -0.00000000      -0.00000000      -0.00000000 </v>
   <v>       0.00000000       0.00000000       0.00000000 </v>
  </varray>
  <varray name="stress" >
   <v>      38.51552115       0.00000000       0.00000000 </v>
   <v>       0.00000000      38.51552115       0.00000000 </v>
   <v>       0.00000000      -0.00000000      38.51552115 </v>
  </varray>
  <energy>
   <i name="e_fr_energy">    -10.17607266 </i>
   <i name="e_wo_entrp">    -10.17521206 </i>
   <i name="e_0_energy">     -0.00172120 </i>
  </energy>
  <time name="totalsc">    1.19    1.87</time>
 </calculation>
 <calculation>
  <scstep>
   <time name="dav">    0.04    0.04</time>
   <time name="total">    0.08    0.08</time>
   <energy>
    <i name="alphaZ">      3.14036858 </i>
    <i name="ewald">   -223.37900856 </i>
    <i name="hartreedc">    -15.34516878 </i>
    <i name="XCdc">    -18.18063306 </i>
    <i name="pawpsdc">     76.49835091 </i>
    <i name="pawaedc">    -41.57151689 </i>
    <i name="eentropy">     -0.00024710 </i>
    <i name="bandstr">      2.51500723 </i>
    <i name="atom">    206.11247263 </i>
    <i name="e_fr_energy">    -10.21037504 </i>
    <i name="e_wo_entrp">    -10.21012794 </i>
    <i name="e_0_energy">    -10.21025149 </i>
   </energy>
  </scstep>
  <scstep>
   <time name="dav">    0.03    0.03</time>
   <time name="total">    0.07    0.08</time>
   <energy>
    <i name="e_fr_energy">    -10.19400414 </i>
    <i name="e_wo_entrp">    -10.19360679 </i>
    <i name="e_0_energy">    -10.19380547 </i>
   </energy>
  </scstep>
  <scstep>
   <time name="dav">    0.04    0.04</time>
   <time name="total">    0.08    0.09</time>
   <energy>
    <i name="e_fr_energy">    -10.18536400 </i>
    <i name="e_wo_entrp">    -10.18465718 </i>
    <i name="e_0_energy">    -10.18501059 </i>
   </energy>
  </scstep>
  <scstep>
   <time name="dav">    0.02    0.02</time>
   <time name="total">    0.05    0.06</time>
   <energy>
    <i name="alphaZ">      3.14036858 </i>
    <i name="ewald">   -223.37900856 </i>
    <i name="hartreedc">    -16.50974570 </i>
    <i name="XCdc">    -18.15266895 </i>
    <i name="pawpsdc">     74.34840552 </i>
    <i name="pawaedc">    -39.36109800 </i>
    <i name="eentropy">     -0.00067689 </i>
    <i name="bandstr">      3.61657422 </i>
    <i name="atom">    206.11247263 </i>
    <i name="e_fr_energy">    -10.18537715 </i>
    <i name="e_wo_entrp">    -10.18470027 </i>
    <i name="e_0_energy">    -10.18503871 </i>
   </energy>
  </scstep>
  <structure>
   <crystal>
    <varray name="basis" >
     <v>       0.00000000       2.77801381       2.77801381 </v>
     <v>       2.77801381      -0.00000000       2.77801381 </v>
     <v>       2.77801381       2.77801381       0.00000000 </v>
    </varray>
    <i name="volume">     42.87786927 </i>
    <varray name="rec_basis" >
     <v>      -0.17998471       0.17998471       0.17998471 </v>
     <v>       0.17998471      -0.17998471       0.17998471 </v>
     <v>       0.17998471       0.17998471      -0.17998471 </v>
    </varray>
   </crystal>
   <varray name="positions" >
    <v>       0.50000000       0.50000000       0.50000000 </v>
    <v>       0.75000000       0.75000000       0.75000000 </v>
   </varray>
  </structure>
  <varray name="forces" >
   <v>      -0.00000000      -0.00000000      -0.00000000 </v>
   <v>       0.00000000       0.00000000       0.00000000 </v>
  </varray>
  <varray name="stress" >
   <v>     -23.80545176       0.00000000      -0.00000000 </v>
   <v>       0.00000000     -23.80545176       0.00000000 </v>
   <v>      -0.00000000       0.00000000     -23.80545176 </v>
  </varray>
  <energy>
   <i name="e_fr_energy">    -10.18537715 </i>
   <i name="e_wo_entrp">    -10.18503871 </i>
   <i name="e_0_energy">     -0.00067689 </i>
  </energy>
  <time name="totalsc">    0.40    0.51</time>
 </calculation>
 <calculation>
  <scstep>
   <time name="dav">    0.04    0.04</time>
   <time name="total">    0.07    0.08</time>
   <energy>
    <i name="alphaZ">      3.23294254 </i>
    <i name="ewald">   -225.55276030 </i>
    <i name="hartreedc">    -16.67906746 </i>
    <i name="XCdc">    -18.01295257 </i>
    <i name="pawpsdc">     74.28745555 </i>
    <i name="pawaedc">    -39.29767653 </i>
    <i name="eentropy">     -0.00144316 </i>
    <i name="bandstr">      5.71161724 </i>
    <i name="atom">    206.11247263 </i>
    <i name="e_fr_energy">    -10.19941206 </i>
    <i name="e_wo_entrp">    -10.19796890 </i>
    <i name="e_0_energy">    -10.19869048 </i>
   </energy>
  </scstep>
  <scstep>
   <time name="dav">    0.03    0.03</time>
   <time name="total">    0.07    0.08</time>
   <energy>
    <i name="e_fr_energy">    -10.19643780 </i>
    <i name="e_wo_entrp">    -10.19521974 </i>
    <i name="e_0_energy">    -10.19582877 </i>
   </energy>
  </scstep>
  <scstep>
   <time name="dav">    0.03    0.04</time>
   <time name="total">    0.07    0.08</time>
   <energy>
    <i name="e_fr_energy">    -10.19483188 </i>
    <i name="e_wo_entrp">    -10.19385969 </i>
    <i name="e_0_energy">    -10.19434579 </i>
   </energy>
  </scstep>
  <scstep>
   <time name="dav">    0.02    0.02</time>
   <time name="total">    0.05    0.06</time>
   <energy>
    <i name="alphaZ">      3.23294254 </i>
    <i name="ewald">   -225.55276030 </i>
    <i name="hartreedc">    -16.17347313 </i>
    <i name="XCdc">    -18.02266789 </i>
    <i name="pawpsdc">     75.18859012 </i>
    <i name="pawaedc">    -40.22418274 </i>
    <i name="eentropy">     -0.00098865 </i>
    <i name="bandstr">      5.24522680 </i>
    <i name="atom">    206.11247263 </i>
    <i name="e_fr_energy">    -10.19484062 </i>
    <i name="e_wo_entrp">    -10.19385197 </i>
    <i name="e_0_energy">    -10.19434629 </i>
   </energy>
  </scstep>
  <structure>
   <crystal>
    <varray name="basis" >
     <v>       0.00000000       2.75124086       2.75124086 </v>
     <v>       2.75124086      -0.00000000       2.75124086 </v>
     <v>       2.75124086       2.75124086       0.00000000 </v>
    </varray>
    <i name="volume">     41.65007942 </i>
    <varray name="rec_basis" >
     <v>      -0.18173618       0.18173618       0.18173618 </v>
     <v>       0.18173618      -0.18173618       0.18173618 </v>
     <v>       0.18173618       0.18173618      -0.18173618 </v>
    </varray>
   </crystal>
   <varray name="positions" >
    <v>       0.50000000       0.50000000       0.50000000 </v>
    <v>       0.75000000       0.75000000       0.75000000 </v>
   </varray>
  </structure>
  <varray name="forces" >
   <v>      -0.00000000      -0.00000000      -0.00000000 </v>
   <v>       0.00000000       0.00000000       0.00000000 </v>
  </varray>
  <varray name="stress" >
   <v>      -0.01850712       0.00000000      -0.00000000 </v>
   <v>       0.00000000      -0.01850712      -0.00000000 </v>
   <v>      -0.00000000      -0.00000000      -0.01850712 </v>
  </varray>
  <energy>
   <i name="e_fr_energy">    -10.19484062 </i>
   <i name="e_wo_entrp">    -10.19434629 </i>
   <i name="e_0_energy">     -0.00098865 </i>
  </energy>
  <time name="totalsc">    0.40    0.57</time>
  <eigenvalues>
   <array>
    <dimension dim="1">band</dimension>
    <dimension dim="2">kpoint</dimension>
    <dimension dim="3">spin</dimension>
    <field>eigene</field>
    <field>occ</field>
    <set>
     <set comment="spin 1">
      <set comment="kpoint 1">
       <r>   -6.1705    1.0000 </r>
       <r>    5.5647    0.9947 </r>
       <r>    5.5648    0.9947 </r>
       <r>    5.5648    0.9947 </r>
       <r>    8.0757    0.0000 </r>
       <r>    8.0757    0.0000 </r>
       <r>    8.0757    0.0000 </r>
       <r>    8.4716    0.0000 </r>
      </set>
      <set comment="kpoint 2">
       <r>   -4.8406    1.0000 </r>
       <r>    0.3090    1.0000 </r>
       <r>    4.5759    1.0000 </r>
       <r>    4.5759    1.0000 </r>
       <r>    7.1756    0.0000 </r>
       <r>    9.0452    0.0000 </r>
       <r>    9.0452    0.0000 </r>
       <r>   13.2501    0.0000 </r>
      </set>
      <set comment="kpoint 3">
       <r>   -4.3272    1.0000 </r>
       <r>    0.5640    1.0000 </r>
       <r>    3.2010    1.0000 </r>
       <r>    3.2011    1.0000 </r>
       <r>    6.3209    0.0026 </r>
       <r>    7.5897    0.0000 </r>
       <r>   12.6895    0.0000 </r>
       <r>   12.6896    0.0000 </r>
      </set>
      <set comment="kpoint 4">
       <r>   -3.0234    1.0000 </r>
       <r>   -1.1365    1.0000 </r>
       <r>    1.2870    1.0000 </r>
       <r>    3.4962    1.0000 </r>
       <r>    7.1453    0.0000 </r>
       <r>   11.3520    0.0000 </r>
       <r>   11.9071    0.0000 </r>
       <r>   12.4713    0.0000 </r>
      </set>
     </set>
    </set>
   </array>
  </eigenvalues>
  <separator name="orbital magnetization" >
   <v name="MAGDIPOLOUT">      0.00000000      0.00000000      0.00000000</v>
  </separator>
  <dos>
   <i name="efermi">      5.92640795 </i>
   <total>
    <array>
     <dimension dim="1">gridpoints</dimension>
     <dimension dim="2">spin</dimension>
     <field>energy</field>
     <field>total</field>
     <field>integrated</field>
     <set>
      <set comment="spin 1">
       <r>    -8.1705     0.0000     0.0000 </r>
       <r>    -8.0924     0.0000     0.0000 </r>
       <r>    -8.0144     0.0000     0.0000 </r>
       <r>    -7.9363     0.0000     0.0000 </r>
       <r>    -7.8582     0.0000     0.0000 </r>
       <r>    -7.7802     0.0000     0.0000 </r>
       <r>    -7.7021     0.0000     0.0000 </r>
       <r>    -7.6240     0.0000     0.0000 </r>
       <r>    -7.5460     0.0000     0.0000 </r>
       <r>    -7.4679     0.0000     0.0000 </r>
       <r>    -7.3898     0.0000     0.0000 </r>
       <r>    -7.3118     0.0000     0.0000 </r>
       <r>    -7.2337     0.0000     0.0000 </r>
       <r>    -7.1556     0.0000     0.0000 </r>
       <r>    -7.0775     0.0000     0.0000 </r>
       <r>    -6.9995     0.0000     0.0000 </r>
       <r>    -6.9214     0.0000     0.0000 </r>
       <r>    -6.8433     0.0000     0.0000 </r>
       <r>    -6.7653     0.0000     0.0000 </r>
       <r>    -6.6872     0.0001     0.0000 </r>
       <r>    -6.6091     0.0008     0.0001 </r>
       <r>    -6.5311     0.0042     0.0004 </r>
       <r>    -6.4530     0.0166     0.0017 </r>
       <r>    -6.3749     0.0487     0.0055 </r>
       <r>    -6.2969     0.1059     0.0138 </r>
       <r>    -6.2188     0.1713     0.0271 </r>
       <r>    -6.1407     0.2059     0.0432 </r>
       <r>    -6.0627     0.1838     0.0576 </r>
       <r>    -5.9846     0.1220     0.0671 </r>
       <r>    -5.9065     0.0601     0.0718 </r>
       <r>    -5.8284     0.0220     0.0735 </r>
       <r>    -5.7504     0.0060     0.0740 </r>
       <r>    -5.6723     0.0012     0.0741 </r>
       <r>    -5.5942     0.0002     0.0741 </r>
       <r>    -5.5162     0.0000     0.0741 </r>
       <r>    -5.4381     0.0001     0.0741 </r>
       <r>    -5.3600     0.0008     0.0741 </r>
       <r>    -5.2820     0.0059     0.0746 </r>
       <r>    -5.2039     0.0319     0.0771 </r>
       <r>    -5.1258     0.1272     0.0870 </r>
       <r>    -5.0478     0.3768     0.1164 </r>
       <r>    -4.9697     0.8289     0.1812 </r>
       <r>    -4.8916     1.3549     0.2869 </r>
       <r>    -4.8136     1.6464     0.4155 </r>
       <r>    -4.7355     1.4934     0.5321 </r>
       <r>    -4.6574     1.0392     0.6132 </r>
       <r>    -4.5794     0.6519     0.6641 </r>
       <r>    -4.5013     0.5923     0.7103 </r>
       <r>    -4.4232     0.8440     0.7762 </r>
       <r>    -4.3451     1.1541     0.8663 </r>
       <r>    -4.2671     1.2262     0.9620 </r>
       <r>    -4.1890     0.9744     1.0381 </r>
       <r>    -4.1109     0.5758     1.0831 </r>
       <r>    -4.0329     0.2528     1.1028 </r>
       <r>    -3.9548     0.0824     1.1092 </r>
       <r>    -3.8767     0.0200     1.1108 </r>
       <r>    -3.7987     0.0036     1.1111 </r>
       <r>    -3.7206     0.0005     1.1111 </r>
       <r>    -3.6425     0.0001     1.1111 </r>
       <r>    -3.5645     0.0007     1.1112 </r>
       <r>    -3.4864     0.0053     1.1116 </r>
       <r>    -3.4083     0.0309     1.1140 </r>
       <r>    -3.3303     0.1339     1.1244 </r>
       <r>    -3.2522     0.4307     1.1581 </r>
       <r>    -3.1741     1.0292     1.2384 </r>
       <r>    -3.0960     1.8267     1.3810 </r>
       <r>    -3.0180     2.4087     1.5691 </r>
       <r>    -2.9399     2.3598     1.7533 </r>
       <r>    -2.8618     1.7176     1.8874 </r>
       <r>    -2.7838     0.9288     1.9599 </r>
       <r>    -2.7057     0.3731     1.9890 </r>
       <r>    -2.6276     0.1113     1.9977 </r>
       <r>    -2.5496     0.0247     1.9996 </r>
       <r>    -2.4715     0.0041     2.0000 </r>
       <r>    -2.3934     0.0005     2.0000 </r>
       <r>    -2.3154     0.0000     2.0000 </r>
       <r>    -2.2373     0.0000     2.0000 </r>
       <r>    -2.1592     0.0000     2.0000 </r>
       <r>    -2.0812     0.0000     2.0000 </r>
       <r>    -2.0031     0.0000     2.0000 </r>
       <r>    -1.9250     0.0000     2.0000 </r>
       <r>    -1.8470     0.0000     2.0000 </r>
       <r>    -1.7689     0.0000     2.0000 </r>
       <r>    -1.6908     0.0005     2.0000 </r>
       <r>    -1.6127     0.0038     2.0003 </r>
       <r>    -1.5347     0.0234     2.0022 </r>
       <r>    -1.4566     0.1066     2.0105 </r>
       <r>    -1.3785     0.3608     2.0387 </r>
       <r>    -1.3005     0.9067     2.1094 </r>
       <r>    -1.2224     1.6924     2.2416 </r>
       <r>    -1.1443     2.3469     2.4248 </r>
       <r>    -1.0663     2.4180     2.6136 </r>
       <r>    -0.9882     1.8510     2.7581 </r>
       <r>    -0.9101     1.0527     2.8402 </r>
       <r>    -0.8321     0.4447     2.8750 </r>
       <r>    -0.7540     0.1395     2.8859 </r>
       <r>    -0.6759     0.0325     2.8884 </r>
       <r>    -0.5979     0.0056     2.8888 </r>
       <r>    -0.5198     0.0007     2.8889 </r>
       <r>    -0.4417     0.0001     2.8889 </r>
       <r>    -0.3636     0.0000     2.8889 </r>
       <r>    -0.2856     0.0001     2.8889 </r>
       <r>    -0.2075     0.0009     2.8890 </r>
       <r>    -0.1294     0.0064     2.8895 </r>
       <r>    -0.0514     0.0338     2.8921 </r>
       <r>     0.0267     0.1335     2.9025 </r>
       <r>     0.1048     0.3930     2.9332 </r>
       <r>     0.1828     0.8655     3.0008 </r>
       <r>     0.2609     1.4432     3.1134 </r>
       <r>     0.3390     1.8737     3.2597 </r>
       <r>     0.4170     2.0027     3.4161 </r>
       <r>     0.4951     1.9065     3.5649 </r>
       <r>     0.5732     1.6913     3.6969 </r>
       <r>     0.6512     1.3453     3.8020 </r>
       <r>     0.7293     0.8872     3.8712 </r>
       <r>     0.8074     0.4604     3.9072 </r>
       <r>     0.8854     0.2003     3.9228 </r>
       <r>     0.9635     0.1527     3.9347 </r>
       <r>     1.0416     0.3559     3.9625 </r>
       <r>     1.1197     0.8787     4.0311 </r>
       <r>     1.1977     1.6580     4.1606 </r>
       <r>     1.2758     2.3284     4.3423 </r>
       <r>     1.3539     2.4297     4.5320 </r>
       <r>     1.4319     1.8838     4.6791 </r>
       <r>     1.5100     1.0851     4.7638 </r>
       <r>     1.5881     0.4643     4.8000 </r>
       <r>     1.6661     0.1475     4.8116 </r>
       <r>     1.7442     0.0348     4.8143 </r>
       <r>     1.8223     0.0061     4.8147 </r>
       <r>     1.9003     0.0008     4.8148 </r>
       <r>     1.9784     0.0001     4.8148 </r>
       <r>     2.0565     0.0000     4.8148 </r>
       <r>     2.1345     0.0000     4.8148 </r>
       <r>     2.2126     0.0000     4.8148 </r>
       <r>     2.2907     0.0000     4.8148 </r>
       <r>     2.3688     0.0000     4.8148 </r>
       <r>     2.4468     0.0000     4.8148 </r>
       <r>     2.5249     0.0000     4.8148 </r>
       <r>     2.6030     0.0001     4.8148 </r>
       <r>     2.6810     0.0012     4.8149 </r>
       <r>     2.7591     0.0088     4.8156 </r>
       <r>     2.8372     0.0473     4.8193 </r>
       <r>     2.9152     0.1892     4.8341 </r>
       <r>     2.9933     0.5630     4.8780 </r>
       <r>     3.0714     1.2503     4.9756 </r>
       <r>     3.1494     2.0924     5.1390 </r>
       <r>     3.2275     2.7125     5.3507 </r>
       <r>     3.3056     2.9145     5.5783 </r>
       <r>     3.3836     2.9120     5.8056 </r>
       <r>     3.4617     2.9178     6.0334 </r>
       <r>     3.5398     2.7520     6.2482 </r>
       <r>     3.6178     2.1733     6.4179 </r>
       <r>     3.6959     1.3357     6.5222 </r>
       <r>     3.7740     0.6197     6.5706 </r>
       <r>     3.8521     0.2147     6.5873 </r>
       <r>     3.9301     0.0554     6.5916 </r>
       <r>     4.0082     0.0110     6.5925 </r>
       <r>     4.0863     0.0051     6.5929 </r>
       <r>     4.1643     0.0235     6.5947 </r>
       <r>     4.2424     0.1120     6.6035 </r>
       <r>     4.3205     0.3987     6.6346 </r>
       <r>     4.3985     1.0544     6.7169 </r>
       <r>     4.4766     2.0709     6.8786 </r>
       <r>     4.5547     3.0218     7.1145 </r>
       <r>     4.6327     3.2759     7.3702 </r>
       <r>     4.7108     2.6387     7.5762 </r>
       <r>     4.7889     1.5791     7.6995 </r>
       <r>     4.8669     0.7020     7.7543 </r>
       <r>     4.9450     0.2318     7.7724 </r>
       <r>     5.0231     0.0570     7.7769 </r>
       <r>     5.1012     0.0116     7.7778 </r>
       <r>     5.1792     0.0090     7.7785 </r>
       <r>     5.2573     0.0333     7.7811 </r>
       <r>     5.3354     0.1069     7.7894 </r>
       <r>     5.4134     0.2559     7.8094 </r>
       <r>     5.4915     0.4552     7.8449 </r>
       <r>     5.5696     0.6016     7.8919 </r>
       <r>     5.6476     0.5907     7.9380 </r>
       <r>     5.7257     0.4310     7.9717 </r>
       <r>     5.8038     0.2342     7.9899 </r>
       <r>     5.8818     0.0987     7.9977 </r>
       <r>     5.9599     0.0531     8.0018 </r>
       <r>     6.0380     0.1051     8.0100 </r>
       <r>     6.1160     0.2913     8.0327 </r>
       <r>     6.1941     0.6333     8.0822 </r>
       <r>     6.2722     1.0260     8.1623 </r>
       <r>     6.3502     1.2352     8.2587 </r>
       <r>     6.4283     1.1048     8.3450 </r>
       <r>     6.5064     0.7342     8.4023 </r>
       <r>     6.5845     0.3629     8.4306 </r>
       <r>     6.6625     0.1371     8.4413 </r>
       <r>     6.7406     0.0634     8.4463 </r>
       <r>     6.8187     0.1384     8.4571 </r>
       <r>     6.8967     0.4710     8.4938 </r>
       <r>     6.9748     1.2551     8.5918 </r>
       <r>     7.0529     2.4971     8.7868 </r>
       <r>     7.1309     3.7040     9.0759 </r>
       <r>     7.2090     4.1059     9.3965 </r>
       <r>     7.2871     3.4392     9.6650 </r>
       <r>     7.3651     2.2944     9.8441 </r>
       <r>     7.4432     1.4805     9.9597 </r>
       <r>     7.5213     1.2567    10.0578 </r>
       <r>     7.5993     1.2950    10.1589 </r>
       <r>     7.6774     1.1899    10.2518 </r>
       <r>     7.7555     0.8658    10.3194 </r>
       <r>     7.8336     0.5357    10.3612 </r>
       <r>     7.9116     0.4026    10.3926 </r>
       <r>     7.9897     0.4748    10.4297 </r>
       <r>     8.0678     0.5996    10.4765 </r>
       <r>     8.1458     0.6144    10.5245 </r>
       <r>     8.2239     0.4910    10.5628 </r>
       <r>     8.3020     0.3348    10.5889 </r>
       <r>     8.3800     0.2475    10.6083 </r>
       <r>     8.4581     0.2281    10.6261 </r>
       <r>     8.5362     0.2134    10.6427 </r>
       <r>     8.6142     0.1753    10.6564 </r>
       <r>     8.6923     0.1705    10.6697 </r>
       <r>     8.7704     0.3390    10.6962 </r>
       <r>     8.8484     0.8643    10.7637 </r>
       <r>     8.9265     1.8036    10.9045 </r>
       <r>     9.0046     2.8291    11.1253 </r>
       <r>     9.0826     3.3012    11.3831 </r>
       <r>     9.1607     2.8626    11.6065 </r>
       <r>     9.2388     1.8442    11.7505 </r>
       <r>     9.3169     0.8826    11.8194 </r>
       <r>     9.3949     0.3138    11.8439 </r>
       <r>     9.4730     0.0828    11.8504 </r>
       <r>     9.5511     0.0162    11.8516 </r>
       <r>     9.6291     0.0024    11.8518 </r>
       <r>     9.7072     0.0003    11.8519 </r>
       <r>     9.7853     0.0000    11.8519 </r>
       <r>     9.8633     0.0000    11.8519 </r>
       <r>     9.9414     0.0000    11.8519 </r>
       <r>    10.0195     0.0000    11.8519 </r>
       <r>    10.0975     0.0000    11.8519 </r>
       <r>    10.1756     0.0000    11.8519 </r>
       <r>    10.2537     0.0000    11.8519 </r>
       <r>    10.3317     0.0000    11.8519 </r>
       <r>    10.4098     0.0000    11.8519 </r>
       <r>    10.4879     0.0000    11.8519 </r>
       <r>    10.5660     0.0000    11.8519 </r>
       <r>    10.6440     0.0000    11.8519 </r>
       <r>    10.7221     0.0000    11.8519 </r>
       <r>    10.8002     0.0005    11.8519 </r>
       <r>    10.8782     0.0041    11.8522 </r>
       <r>    10.9563     0.0247    11.8541 </r>
       <r>    11.0344     0.1113    11.8628 </r>
       <r>    11.1124     0.3732    11.8920 </r>
       <r>    11.1905     0.9289    11.9645 </r>
       <r>    11.2686     1.7178    12.0986 </r>
       <r>    11.3466     2.3602    12.2828 </r>
       <r>    11.4247     2.4119    12.4711 </r>
       <r>    11.5028     1.8471    12.6153 </r>
       <r>    11.5808     1.1248    12.7031 </r>
       <r>    11.6589     0.7623    12.7627 </r>
       <r>    11.7370     0.9867    12.8397 </r>
       <r>    11.8150     1.6602    12.9693 </r>
       <r>    11.8931     2.3179    13.1503 </r>
       <r>    11.9712     2.4411    13.3408 </r>
       <r>    12.0493     1.9243    13.4910 </r>
       <r>    12.1273     1.1815    13.5833 </r>
       <r>    12.2054     0.7406    13.6411 </r>
       <r>    12.2835     0.8804    13.7098 </r>
       <r>    12.3615     1.5731    13.8327 </r>
       <r>    12.4396     2.5218    14.0295 </r>
       <r>    12.5177     3.3108    14.2880 </r>
       <r>    12.5957     3.6831    14.5755 </r>
       <r>    12.6738     3.5922    14.8560 </r>
       <r>    12.7519     3.0420    15.0934 </r>
       <r>    12.8299     2.1424    15.2607 </r>
       <r>    12.9080     1.2299    15.3567 </r>
       <r>    12.9861     0.6778    15.4096 </r>
       <r>    13.0641     0.6412    15.4597 </r>
       <r>    13.1422     1.0140    15.5389 </r>
       <r>    13.2203     1.4776    15.6542 </r>
       <r>    13.2984     1.6481    15.7829 </r>
       <r>    13.3764     1.3708    15.8899 </r>
       <r>    13.4545     0.8475    15.9561 </r>
       <r>    13.5326     0.3892    15.9864 </r>
       <r>    13.6106     0.1328    15.9968 </r>
       <r>    13.6887     0.0336    15.9994 </r>
       <r>    13.7668     0.0063    15.9999 </r>
       <r>    13.8448     0.0009    16.0000 </r>
       <r>    13.9229     0.0001    16.0000 </r>
       <r>    14.0010     0.0000    16.0000 </r>
       <r>    14.0790     0.0000    16.0000 </r>
       <r>    14.1571     0.0000    16.0000 </r>
       <r>    14.2352     0.0000    16.0000 </r>
       <r>    14.3132     0.0000    16.0000 </r>
       <r>    14.3913     0.0000    16.0000 </r>
       <r>    14.4694     0.0000    16.0000 </r>
       <r>    14.5474     0.0000    16.0000 </r>
       <r>    14.6255     0.0000    16.0000 </r>
       <r>    14.7036     0.0000    16.0000 </r>
       <r>    14.7817     0.0000    16.0000 </r>
       <r>    14.8597     0.0000    16.0000 </r>
       <r>    14.9378     0.0000    16.0000 </r>
       <r>    15.0159     0.0000    16.0000 </r>
       <r>    15.0939     0.0000    16.0000 </r>
       <r>    15.1720     0.0000    16.0000 </r>
       <r>    15.2501     0.0000    16.0000 </r>
      </set>
     </set>
    </array>
   </total>
  </dos>
 </calculation>
 <structure name="finalpos" >
  <crystal>
   <varray name="basis" >
    <v>       0.00000000       2.75124086       2.75124086 </v>
    <v>       2.75124086      -0.00000000       2.75124086 </v>
    <v>       2.75124086       2.75124086       0.00000000 </v>
   </varray>
   <i name="volume">     41.65007942 </i>
   <varray name="rec_basis" >
    <v>      -0.18173618       0.18173618       0.18173618 </v>
    <v>       0.18173618      -0.18173618       0.18173618 </v>
    <v>       0.18173618       0.18173618      -0.18173618 </v>
   </varray>
  </crystal>
  <varray name="positions" >
   <v>       0.50000000       0.50000000       0.50000000 </v>
   <v>       0.75000000       0.75000000       0.75000000 </v>
  </varray>
 </structure>
</modeling>
