unknown system                          
   1.00000000000000     
    -2.450000    2.450000    1.274000
     2.450000   -2.450000    1.274000
     2.450000    2.450000   -1.274000
   Si
     2
Direct
  0.250000  0.750000  0.500000
  0.000000  0.000000  0.000000
 
   28   28   28
 -5.4750     -3.9447     0.36164E-01  4.9501      9.1144      11.420      11.687      10.527      8.8756      7.3148    
  6.0164      5.0382      4.3743      3.9943      3.8710      3.9942      4.3742      5.0382      6.0164      7.3148    
  8.8757      10.527      11.687      11.420      9.1144      4.9501     0.36135E-01 -3.9448     -3.9448     -4.7626    
 -2.6385      1.5782      6.2928      9.9359      11.629      11.417      10.037      8.3856      6.8912      5.6835    
  4.7992      4.2222      3.9209      3.8709      4.0665      4.5216      5.2649      6.3233      7.6912      9.2907    
  10.903      11.836      11.196      8.5232      4.2024     -.51197     0.36135E-01 -2.6385     -2.7506     -.25722    
  3.8306      7.9616      10.787      11.714      11.002      9.4593      7.8491      6.4455      5.3439      4.5611    
  4.0737      3.8503      3.8709      4.1338      4.6560      5.4660      6.5853      7.9969      9.6061      11.153    
  11.904      11.054      8.3084      4.2024      4.9501      1.5781     -.25722     0.21351      2.7881      6.3935    
  9.6359      11.466      11.590      10.446      8.8341      7.2962      6.0024      5.0158      4.3363      3.9361    
  3.7861      3.8709      4.1926      4.7697      5.6290      6.7858      8.2125      9.8032      11.277      11.922    
  11.054      8.5232      9.1144      6.2928      3.8306      2.7881      3.6363      5.9969      8.8395      11.018    
  11.820      11.227      9.7891      8.1957      6.7565      5.5847      4.7152      4.1354      3.8158      3.7313    
  3.8710      4.2396      4.8560      5.7437      6.9117      8.3240      9.8702      11.277      11.904      11.196    
  11.420      9.9359      7.9616      6.3935      5.9969      6.9843      8.8865      10.807      11.900      11.784    
  10.658      9.1012      7.5778      6.2565      5.2115      4.4550      3.9665      3.7177      3.6883      3.8710    
  4.2724      4.9099      5.8030      6.9546      8.3240      9.8032      11.153      11.836      11.687      11.629    
  10.787      9.6359      8.8395      8.8865      9.7953      11.091      12.073      12.207      11.395      9.9748    
  8.4343      7.0120      5.8190      4.8979      4.2448      3.8356      3.6454      3.6586      3.8710      4.2892    
  4.9282      5.8030      6.9117      8.2125      9.6061      10.903      10.527      11.417      11.714      11.466    
  11.018      10.807      11.091      11.768      12.425      12.588      12.003      10.779      9.2917      7.8271    
  6.5258      5.4619      4.6547      4.0909      3.7465      3.6013      3.6436      3.8710      4.2892      4.9099    
  5.7437      6.7858      7.9969      9.2907      8.8757      10.037      11.002      11.590      11.820      11.900    
  12.073      12.425      12.807      12.910      12.475      11.466      10.109      8.6719      7.3149      6.1416    
  5.1984      4.4892      3.9972      3.7015      3.5864      3.6436      3.8710      4.2724      4.8560      5.6290    
  6.5853      7.6912      7.3148      8.3856      9.4593      10.446      11.227      11.784      12.207      12.588    
  12.910      13.024      12.740      11.973      10.828      9.5040      8.1614      6.9270      5.8763      5.0370    
  4.4056      3.9658      3.7015      3.6013      3.6586      3.8710      4.2396      4.7697      5.4660      6.3233    
  6.0164      6.8912      7.8491      8.8341      9.7891      10.658      11.395      12.003      12.475      12.740    
  12.683      12.217      11.371      10.261      9.0245      7.7984      6.6852      5.7409      4.9827      4.4056    
  3.9972      3.7465      3.6454      3.6883      3.8710      4.1926      4.6560      5.2649      5.0382      5.6835    
  6.4455      7.2962      8.1957      9.1012      9.9748      10.779      11.466      11.973      12.217      12.118    
  11.653      10.861      9.8397      8.7169      7.6099      6.6031      5.7409      5.0370      4.4892      4.0909    
  3.8356      3.7177      3.7313      3.8709      4.1338      4.5216      4.3742      4.7991      5.3439      6.0024    
  6.7564      7.5778      8.4343      9.2917      10.109      10.828      11.371      11.653      11.607      11.216    
  10.522      9.6157      8.6109      7.6099      6.6852      5.8763      5.1984      4.6547      4.2448      3.9665    
  3.8158      3.7861      3.8709      4.0665      3.9942      4.2222      4.5611      5.0158      5.5847      6.2565    
  7.0120      7.8271      8.6719      9.5040      10.261      10.861      11.216      11.262      10.979      10.403    
  9.6157      8.7169      7.7984      6.9270      6.1416      5.4619      4.8979      4.4550      4.1354      3.9361    
  3.8503      3.8709      3.8710      3.9209      4.0737      4.3363      4.7153      5.2115      5.8190      6.5258    
  7.3149      8.1614      9.0245      9.8397      10.522      10.979      11.140      10.979      10.522      9.8397    
  9.0245      8.1614      7.3149      6.5258      5.8190      5.2115      4.7152      4.3363      4.0737      3.9209    
  3.9943      3.8710      3.8504      3.9361      4.1354      4.4550      4.8979      5.4619      6.1416      6.9270    
  7.7984      8.7169      9.6157      10.403      10.979      11.262      11.216      10.861      10.261      9.5040    
  8.6719      7.8271      7.0120      6.2565      5.5847      5.0158      4.5611      4.2222      4.3743      4.0666    
  3.8711      3.7863      3.8158      3.9665      4.2448      4.6547      5.1983      5.8763      6.6852      7.6099    
  8.6109      9.6157      10.522      11.216      11.607      11.653      11.371      10.828      10.109      9.2917    
  8.4343      7.5778      6.7565      6.0024      5.3439      4.7992      5.0382      4.5217      4.1340      3.8711    
  3.7314      3.7178      3.8356      4.0909      4.4892      5.0370      5.7409      6.6031      7.6099      8.7169    
  9.8397      10.861      11.653      12.118      12.217      11.973      11.466      10.779      9.9748      9.1012    
  8.1957      7.2962      6.4455      5.6835      6.0164      5.2650      4.6561      4.1927      3.8711      3.6884    
  3.6455      3.7465      3.9972      4.4055      4.9827      5.7409      6.6852      7.7984      9.0245      10.261    
  11.371      12.217      12.683      12.740      12.475      12.003      11.395      10.658      9.7891      8.8341    
  7.8491      6.8912      7.3148      6.3233      5.4660      4.7698      4.2397      3.8711      3.6587      3.6013    
  3.7015      3.9658      4.4055      5.0370      5.8763      6.9270      8.1614      9.5040      10.828      11.973    
  12.740      13.024      12.910      12.588      12.207      11.784      11.227      10.446      9.4593      8.3856    
  8.8756      7.6912      6.5853      5.6290      4.8560      4.2724      3.8711      3.6437      3.5865      3.7015    
  3.9972      4.4892      5.1983      6.1416      7.3149      8.6719      10.109      11.466      12.475      12.910    
  12.807      12.425      12.073      11.900      11.820      11.590      11.002      10.037      10.527      9.2907    
  7.9969      6.7858      5.7437      4.9099      4.2892      3.8711      3.6437      3.6013      3.7465      4.0909    
  4.6547      5.4619      6.5258      7.8271      9.2917      10.779      12.003      12.588      12.425      11.768    
  11.091      10.807      11.018      11.466      11.714      11.417      11.687      10.903      9.6061      8.2125    
  6.9116      5.8030      4.9282      4.2892      3.8711      3.6587      3.6455      3.8356      4.2448      4.8979    
  5.8190      7.0120      8.4343      9.9748      11.395      12.207      12.073      11.091      9.7953      8.8865    
  8.8395      9.6359      10.787      11.629      11.420      11.836      11.153      9.8031      8.3239      6.9545    
  5.8030      4.9099      4.2724      3.8711      3.6884      3.7178      3.9665      4.4550      5.2115      6.2565    
  7.5778      9.1012      10.658      11.784      11.900      10.807      8.8865      6.9843      5.9969      6.3935    
  7.9616      9.9359      9.1144      11.196      11.904      11.277      9.8701      8.3239      6.9116      5.7437    
  4.8560      4.2397      3.8711      3.7314      3.8158      4.1354      4.7153      5.5847      6.7564      8.1957    
  9.7891      11.227      11.820      11.018      8.8395      5.9969      3.6363      2.7881      3.8306      6.2928    
  4.9501      8.5232      11.054      11.922      11.277      9.8031      8.2125      6.7858      5.6290      4.7698    
  4.1927      3.8711      3.7863      3.9361      4.3363      5.0158      6.0024      7.2962      8.8341      10.446    
  11.590      11.466      9.6359      6.3935      2.7881     0.21351     -.25722      1.5782     0.36164E-01  4.2024    
  8.3084      11.054      11.904      11.153      9.6061      7.9969      6.5853      5.4660      4.6561      4.1340    
  3.8711      3.8504      4.0737      4.5611      5.3439      6.4455      7.8491      9.4593      11.002      11.714    
  10.787      7.9616      3.8306     -.25722     -2.7506     -2.6385     -3.9447     -.51193      4.2024      8.5232    
  11.196      11.836      10.903      9.2907      7.6912      6.3233      5.2650      4.5217      4.0666      3.8710    
  3.9209      4.2222      4.7991      5.6835      6.8912      8.3856      10.037      11.417      11.629      9.9359    
  6.2928      1.5781     -2.6385     -4.7626     -3.9447     -2.8262     0.65999      5.1555      9.0669      11.284    
  11.561      10.435      8.7918      7.2243      5.9091      4.9072      4.2150      3.8031      3.6436      3.7243    
  4.0529      4.6547      5.5607      6.7844      8.2847      9.9248      11.246      11.365      9.6170      6.0439    
  1.5758     -2.2466     -2.8262     -3.9447     -2.2466      1.5758      6.0439      9.6171      11.365      11.246    
  9.9248      8.2847      6.7845      5.5607      4.6547      4.0530      3.7243      3.6435      3.8030      4.2150    
  4.9072      5.9091      7.2243      8.7918      10.435      11.561      11.284      9.0669      5.1555     0.65997    
 0.74720     -2.1539     -2.6385     -.52247      3.3157      7.3853      10.308      11.399      10.826      9.3433    
  7.7424      6.3323      5.2155      4.4139      3.9063      3.6617      3.6586      3.8942      4.3845      5.1585    
  6.2419      7.6274      9.2358      10.849      11.796      11.247      8.8157      4.9149      5.3835      1.8270    
 -.34825     -.25722      2.0366      5.5525      8.8992      10.949      11.296      10.295      8.7252      7.1931    
  5.8912      4.8908      4.1965      3.7820      3.6181      3.6882      3.9937      4.5532      5.3951      6.5400    
  7.9696      9.5906      11.155      11.975      11.320      8.9470      9.4461      6.4735      3.7014      2.2721    
  2.7880      4.9882      7.8864      10.288      11.370      11.002      9.6740      8.1025      6.6635      5.4822    
  4.6014      4.0120      3.6854      3.5958      3.7313      4.0969      4.7122      5.6034      6.7851      8.2293    
  9.8337      11.342      12.108      11.515      11.791      10.203      7.9691      6.0306      5.2602      5.9968    
  7.8549      9.9347      11.306      11.465      10.518      9.0178      7.5041      6.1776      5.1231      4.3593    
  3.8679      3.6206      3.5958      3.7862      4.1988      4.8529      5.7711      6.9613      8.3886      9.9479    
  11.400      12.180      12.158      12.060      11.040      9.5779      8.4098      8.1378      8.8864      10.225    
  11.414      11.815      11.220      9.9022      8.3804      6.9573      5.7559      4.8277      4.1733      3.7693    
  3.5898      3.6182      3.8504      4.2944      4.9674      5.8874      7.0565      8.4356      9.9232      11.317    
  11.083      12.002      12.218      11.760      11.000      10.459      10.497      11.090      11.836      12.195    
  11.813      10.715      9.2579      7.7958      6.4869      5.4152      4.6062      4.0489      3.7187      3.5937    
  3.6617      3.9209      4.3787      5.0489      5.9447      7.0635      8.3656      9.7585      9.4622      10.700    
  11.677      12.170      12.194      11.998      11.903      12.081      12.425      12.614      12.317      11.418    
  10.095      8.6604      7.2959      6.1138      5.1676      4.4651      3.9891      3.7170      3.6316      3.7243    
  3.9942      4.4468      5.0921      5.9388      6.9812      8.1823      7.8975      9.0526      10.187      11.178    
  11.869      12.248      12.447      12.625      12.822      12.910      12.672      11.963      10.835      9.5058    
  8.1534      6.9090      5.8546      5.0218      4.4079      3.9947      3.7635      3.7016      3.8031      4.0665    
  4.4948      5.0942      5.8696      6.8147      6.5753      7.5303      8.5559      9.5813      10.533      11.327    
  11.923      12.358      12.675      12.840      12.740      12.262      11.397      10.267      9.0140      7.7758    
  6.6584      5.7213      4.9828      4.4359      4.0648      3.8560      3.8008      3.8943      4.1339      4.5196    
  5.0546      5.7417      5.5635      6.2793      7.1051      8.0036      8.9229      9.8092      10.619      11.313    
  11.865      12.246      12.390      12.217      11.693      10.860      9.8108      8.6707      7.5585      6.5604    
  5.7212      5.0525      4.5481      4.1973      3.9916      3.9253      3.9937      4.1926      4.5196      4.9758    
  4.8629      5.3468      5.9460      6.6491      7.4298      8.2511      9.0734      9.8609      10.578      11.181    
  11.607      11.784      11.653      11.197      10.459      9.5265      8.5134      7.5220      6.6242      5.8565    
  5.2298      4.7419      4.3885      4.1659      4.0704      4.0969      4.2396      4.4948      4.4469      4.7232    
  5.1055      5.5963      6.1892      6.8671      7.6042      8.3720      9.1404      9.8728      10.517      11.003    
  11.255      11.216      10.870      10.255      9.4530      8.5628      7.6742      6.8501      6.1243      5.5104    
  5.0127      4.6334      4.3732      4.2302      4.1988      4.2724      4.2892      4.3787      4.5651      4.8540    
  5.2498      5.7502      6.3446      7.0164      7.7459      8.5089      9.2695      9.9721      10.542      10.898    
  10.979      10.764      10.282      9.6052      8.8208      8.0096      7.2298      6.5159      5.8863      5.3527    
  4.9241      4.6059      4.3978      4.2945      4.3787      4.2892      4.2945      4.3978      4.6059      4.9241    
  5.3526      5.8863      6.5159      7.2298      8.0096      8.8208      9.6053      10.282      10.764      10.979    
  10.898      10.542      9.9721      9.2695      8.5089      7.7459      7.0164      6.3446      5.7502      5.2498    
  4.8540      4.5651      4.7232      4.4469      4.2724      4.1989      4.2302      4.3732      4.6334      5.0127    
  5.5104      6.1243      6.8501      7.6742      8.5628      9.4530      10.255      10.870      11.216      11.255    
  11.003      10.517      9.8727      9.1404      8.3720      7.6042      6.8671      6.1892      5.5963      5.1055    
  5.3468      4.8630      4.4949      4.2397      4.0970      4.0704      4.1659      4.3885      4.7419      5.2298    
  5.8565      6.6242      7.5220      8.5134      9.5265      10.459      11.197      11.653      11.784      11.607    
  11.181      10.578      9.8609      9.0734      8.2511      7.4298      6.6491      5.9460      6.2793      5.5635    
  4.9759      4.5197      4.1927      3.9938      3.9254      3.9916      4.1973      4.5481      5.0525      5.7212    
  6.5604      7.5585      8.6707      9.8108      10.859      11.692      12.217      12.390      12.246      11.865    
  11.313      10.619      9.8092      8.9229      8.0037      7.1051      7.5303      6.5753      5.7417      5.0546    
  4.5197      4.1339      3.8943      3.8008      3.8560      4.0648      4.4359      4.9828      5.7213      6.6584    
  7.7758      9.0140      10.267      11.397      12.262      12.740      12.840      12.675      12.358      11.923    
  11.327      10.533      9.5813      8.5559      9.0526      7.8975      6.8147      5.8697      5.0942      4.4949    
  4.0666      3.8031      3.7017      3.7635      3.9947      4.4079      5.0218      5.8546      6.9090      8.1534    
  9.5057      10.835      11.963      12.672      12.911      12.822      12.625      12.447      12.248      11.869    
  11.178      10.187      10.700      9.4622      8.1823      6.9812      5.9388      5.0922      4.4469      3.9943    
  3.7244      3.6316      3.7171      3.9891      4.4651      5.1676      6.1137      7.2959      8.6604      10.095    
  11.418      12.317      12.614      12.425      12.081      11.903      11.998      12.194      12.170      11.677    
  12.002      11.083      9.7585      8.3656      7.0635      5.9447      5.0489      4.3787      3.9209      3.6617    
  3.5937      3.7187      4.0489      4.6062      5.4151      6.4869      7.7958      9.2579      10.715      11.813    
  12.195      11.836      11.091      10.497      10.459      11.000      11.760      12.218      12.060      12.158    
  11.317      9.9232      8.4355      7.0565      5.8874      4.9674      4.2944      3.8504      3.6182      3.5898    
  3.7693      4.1733      4.8277      5.7559      6.9573      8.3803      9.9022      11.220      11.815      11.414    
  10.225      8.8866      8.1379      8.4099      9.5779      11.040      10.203      11.791      12.180      11.400    
  9.9479      8.3885      6.9613      5.7711      4.8529      4.1989      3.7862      3.5959      3.6206      3.8680    
  4.3593      5.1231      6.1776      7.5040      9.0178      10.518      11.465      11.306      9.9348      7.8550    
  5.9969      5.2602      6.0307      7.9691      6.4735      9.4461      11.515      12.108      11.342      9.8337    
  8.2292      6.7850      5.6034      4.7122      4.0970      3.7314      3.5959      3.6855      4.0120      4.6014    
  5.4822      6.6635      8.1025      9.6740      11.002      11.370      10.288      7.8865      4.9883      2.7881    
  2.2722      3.7014      1.8270      5.3835      8.9470      11.320      11.976      11.155      9.5906      7.9696    
  6.5400      5.3951      4.5532      3.9938      3.6883      3.6182      3.7820      4.1965      4.8908      5.8912    
  7.1931      8.7252      10.295      11.296      10.949      8.8992      5.5525      2.0366     -.25719     -.34823    
 -2.1539     0.74722      4.9149      8.8157      11.247      11.797      10.849      9.2358      7.6274      6.2419    
  5.1585      4.3846      3.8943      3.6587      3.6617      3.9064      4.4139      5.2155      6.3323      7.7424    
  9.3433      10.826      11.399      10.308      7.3853      3.3157     -.52247     -2.6385     0.36204E-01 0.74724    
  3.4265      6.9799      10.061      11.704      11.683      10.462      8.8256      7.2737      5.9647      4.9555    
  4.2434      3.8008      3.6012      3.6316      3.8962      4.4156      5.2193      6.3259      7.7130      9.2813    
  10.747      11.391      10.545      8.0922      4.6883      1.5758     0.66001     -.51188     0.66002      3.6783    
  7.3119      10.218      11.552      11.253      9.8997      8.2819      6.8014      5.5856      4.6745      4.0562    
  3.7016      3.5864      3.7016      4.0562      4.6745      5.5856      6.8014      8.2819      9.8997      11.253    
  11.552      10.218      7.3118      3.6782      3.4265     0.74724     0.36215E-01  1.5758      4.6883      8.0922    
  10.545      11.391      10.747      9.2813      7.7130      6.3260      5.2193      4.4156      3.8962      3.6316    
  3.6012      3.8008      4.2433      4.9555      5.9647      7.2737      8.8256      10.462      11.683      11.704    
  10.061      6.9799      7.1956      3.9972      1.8270      1.5782      3.3157      6.2429      9.1242      10.903    
  11.156      10.167      8.6412      7.1473      5.8707      4.8827      4.1904      3.7699      3.5937      3.6454    
  3.9253      4.4497      5.2458      6.3374      7.7176      9.3138      10.941      12.044      11.899      10.166    
  10.546      7.9339      5.2888      3.7014      3.8306      5.5524      8.0302      10.165      11.147      10.796    
  9.5271      8.0092      6.6105      5.4558      4.5902      4.0080      3.6826      3.5898      3.7177      4.0704    
  4.6660      5.5308      6.6833      8.1067      9.7165      11.311      12.336      12.155      12.446      11.135    
  9.0512      7.0579      6.0306      6.3934      7.8864      9.7142      10.985      11.167      10.298      8.8705    
  7.4113      6.1248      5.0980      4.3533      3.8755      3.6381      3.6206      3.8158      4.2302      4.8823    
  5.7953      6.9816      8.4157      10.006      11.551      12.542      12.630      12.704      11.798      10.320    
  8.9760      8.4097      8.8394      9.9346      11.013      11.430      10.922      9.6973      8.2424      6.8714    
  5.7089      4.8103      4.1802      3.7977      3.6381      3.6855      3.9361      4.3978      5.0874      6.0238    
  7.2129      8.6223      10.158      11.637      11.553      12.560      12.842      12.372      11.484      10.705    
  10.459      10.807      11.414      11.758      11.450      10.452      9.0723      7.6710      6.4105      5.3776    
  4.6022      4.0763      3.7769      3.6827      3.7820      4.0737      4.5651      5.2698      6.2018      7.3606    
  8.7100      10.159      10.006      11.291      12.301      12.780      12.706      12.320      11.973      11.903    
  12.072      12.195      11.929      11.110      9.8643      8.4919      7.1823      6.0466      5.1420      4.4795    
  4.0440      3.8131      3.7699      3.9064      4.2223      4.7231      5.4187      6.3172      7.4134      8.6704    
  8.5049      9.7055      10.865      11.845      12.468      12.702      12.690      12.632      12.625      12.588    
  12.317      11.640      10.566      9.2902      7.9933      6.8005      5.7945      5.0097      4.4453      4.0833    
  3.9045      3.8962      4.0530      4.3743      4.8629      5.5241      6.3613      7.3664      7.2225      8.2248    
  9.2795      10.305      11.215      11.910      12.344      12.573      12.680      12.675      12.475      11.963    
  11.105      10.004      8.7971      7.6107      6.5467      5.6651      4.9851      4.4998      4.1921      4.0472    
  4.0562      4.2150      4.5217      4.9759      5.5787      6.3306      6.2272      6.9922      7.8505      8.7576    
  9.6527      10.473      11.168      11.699      12.060      12.253      12.246      11.973      11.397      10.554    
  9.5288      8.4318      7.3739      6.4373      5.6658      5.0698      4.6413      4.3668      4.2362      4.2433    
  4.3846      4.6561      5.0547      5.5788      5.5241      6.0584      6.6920      7.4086      8.1759      8.9504    
  9.6867      10.348      10.904      11.327      11.578      11.607      11.371      10.860      10.109      9.1994    
  8.2332      7.3054      6.4831      5.7998      5.2628      4.8663      4.6022      4.4646      4.4497      4.5532    
  4.7698      5.0943      5.0923      5.4188      5.8362      6.3430      6.9289      7.5721      8.2426      8.9088    
  9.5412      10.110      10.579      10.895      11.003      10.861      10.459      9.8338      9.0602      8.2279    
  7.4184      6.6884      6.0662      5.5601      5.1692      4.8911      4.7241      4.6661      4.7122      4.8561    
  4.9100      5.0490      5.2699      5.5757      5.9678      6.4408      6.9814      7.5700      8.1854      8.8050    
  9.3997      9.9265      10.328      10.542      10.522      10.255      9.7720      9.1366      8.4271      7.7149    
  7.0498      6.4591      5.9546      5.5416      5.2240      5.0045      4.8823      4.8530      4.9675      4.9283    
  4.9675      5.0874      5.2931      5.5882      5.9711      6.4342      6.9666      7.5557      8.1846      8.8254    
  9.4319      9.9405      10.282      10.403      10.282      9.9405      9.4319      8.8254      8.1846      7.5557    
  6.9666      6.4342      5.9711      5.5882      5.2932      5.0874      5.2699      5.0490      4.9099      4.8529    
  4.8823      5.0044      5.2239      5.5415      5.9546      6.4591      7.0498      7.7148      8.4271      9.1366    
  9.7720      10.255      10.522      10.542      10.328      9.9265      9.3997      8.8050      8.1854      7.5700    
  6.9814      6.4408      5.9678      5.5757      5.8362      5.4187      5.0922      4.8560      4.7122      4.6660    
  4.7241      4.8911      5.1692      5.5602      6.0662      6.6884      7.4184      8.2279      9.0602      9.8338    
  10.459      10.861      11.003      10.895      10.579      10.110      9.5412      8.9087      8.2426      7.5721    
  6.9289      6.3430      6.6920      6.0584      5.5241      5.0942      4.7697      4.5532      4.4496      4.4646    
  4.6022      4.8663      5.2628      5.7998      6.4831      7.3054      8.2332      9.1994      10.109      10.860    
  11.371      11.607      11.578      11.327      10.904      10.347      9.6867      8.9504      8.1759      7.4086    
  7.8505      6.9922      6.2272      5.5787      5.0546      4.6560      4.3845      4.2433      4.2361      4.3668    
  4.6413      5.0699      5.6658      6.4373      7.3739      8.4318      9.5288      10.554      11.397      11.973    
  12.246      12.253      12.060      11.699      11.168      10.473      9.6527      8.7576      9.2795      8.2248    
  7.2226      6.3306      5.5787      4.9758      4.5216      4.2150      4.0562      4.0472      4.1921      4.4998    
  4.9852      5.6651      6.5467      7.6107      8.7971      10.004      11.105      11.963      12.475      12.675    
  12.680      12.573      12.344      11.910      11.215      10.305      10.865      9.7056      8.5049      7.3664    
  6.3613      5.5240      4.8629      4.3742      4.0529      3.8961      3.9044      4.0833      4.4453      5.0097    
  5.7945      6.8005      7.9933      9.2902      10.566      11.640      12.317      12.588      12.625      12.632    
  12.691      12.702      12.468      11.845      12.301      11.291      10.006      8.6705      7.4134      6.3172    
  5.4186      4.7231      4.2222      3.9063      3.7699      3.8131      4.0440      4.4795      5.1420      6.0466    
  7.1823      8.4919      9.8643      11.110      11.929      12.195      12.073      11.903      11.973      12.320    
  12.706      12.780      12.842      12.560      11.553      10.159      8.7101      7.3606      6.2018      5.2698    
  4.5650      4.0736      3.7820      3.6826      3.7769      4.0763      4.6022      5.3776      6.4105      7.6710    
  9.0723      10.452      11.450      11.758      11.414      10.807      10.459      10.705      11.484      12.372    
  11.798      12.704      12.630      11.637      10.158      8.6223      7.2129      6.0238      5.0873      4.3977    
  3.9360      3.6854      3.6381      3.7977      4.1802      4.8103      5.7089      6.8714      8.2424      9.6973    
  10.922      11.430      11.013      9.9348      8.8395      8.4098      8.9760      10.320      9.0512      11.135    
  12.446      12.542      11.551      10.006      8.4157      6.9816      5.7953      4.8822      4.2302      3.8158    
  3.6206      3.6381      3.8755      4.3533      5.0980      6.1248      7.4113      8.8705      10.298      11.167    
  10.985      9.7144      7.8865      6.3935      6.0306      7.0579      5.2888      7.9339      10.546      12.155    
  12.336      11.311      9.7165      8.1067      6.6833      5.5308      4.6660      4.0704      3.7177      3.5898    
  3.6827      4.0080      4.5903      5.4558      6.6104      8.0092      9.5271      10.796      11.147      10.165    
  8.0302      5.5525      3.8306      3.7014      1.8270      3.9972      7.1955      10.166      11.899      12.044    
  10.941      9.3138      7.7176      6.3374      5.2458      4.4497      3.9253      3.6454      3.5937      3.7699    
  4.1904      4.8827      5.8707      7.1473      8.6412      10.167      11.156      10.903      9.1242      6.2429    
  3.3157      1.5782      4.9501      5.3835      7.1955      9.5947      11.570      12.394      11.926      10.572    
  8.9680      7.4630      6.1869      5.1884      4.4645      3.9915      3.7464      3.7170      3.9044      4.3236    
  4.9989      5.9514      7.1744      8.6036      10.085      11.172      11.264      10.120      8.0921      6.0438    
  5.1555      4.2025      4.9149      6.9799      9.4793      11.376      12.016      11.375      9.9516      8.3794    
  6.9467      5.7633      4.8633      4.2361      3.8560      3.7014      3.7634      4.0472      4.5713      5.3615    
  6.4348      7.7713      9.2835      10.756      11.617      11.298      9.6882      7.3118      6.9799      4.9149    
  4.2025      5.1555      7.3118      9.6882      11.298      11.617      10.756      9.2835      7.7714      6.4348    
  5.3615      4.5713      4.0472      3.7634      3.7014      3.8560      4.2362      4.8634      5.7633      6.9467    
  8.3794      9.9516      11.375      12.016      11.376      9.4793      9.5947      7.1955      5.3835      4.9502    
  6.0439      8.0922      10.120      11.264      11.172      10.085      8.6036      7.1744      5.9514      4.9989    