unknown system                          
   1.00000000000000     
    -2.450000    2.450000    1.274000
     2.450000   -2.450000    1.274000
     2.450000    2.450000   -1.274000
   Si
     2
Direct
  0.250000  0.750000  0.500000
  0.000000  0.000000  0.000000
 
   28   28   28
 -.54734902943E+01 -.39439300807E+01 0.35464701737E-01 0.49480378963E+01 0.91118357835E+01
 0.11418121864E+02 0.11686280988E+02 0.10527870955E+02 0.88772549871E+01 0.73167486709E+01
 0.60181395589E+01 0.50394569867E+01 0.43749725767E+01 0.39945299417E+01 0.38711161365E+01
 0.39945182603E+01 0.43749728025E+01 0.50394709648E+01 0.60181438506E+01 0.73167379139E+01
 0.88772485777E+01 0.10527874909E+02 0.11686282080E+02 0.11418120078E+02 0.91118435271E+01
 0.49480473667E+01 0.35456014128E-01 -.39439486041E+01 -.39439486041E+01 -.47609522685E+01
 -.26372867544E+01 0.15780326090E+01 0.62913744453E+01 0.99340636088E+01 0.11627533035E+02
 0.11417053237E+02 0.10037540663E+02 0.83870759475E+01 0.68928510101E+01 0.56849336999E+01
 0.48001473466E+01 0.42227812093E+01 0.39211248136E+01 0.38711080704E+01 0.40668728746E+01
 0.45224956940E+01 0.52664485088E+01 0.63252975127E+01 0.76933076891E+01 0.92923023912E+01
 0.10903435814E+02 0.11835367690E+02 0.11193119678E+02 0.85201231935E+01 0.41999338823E+01
 -.51286022826E+00 0.35456014128E-01 -.26372998176E+01 -.27484679437E+01 -.25540148101E+00
 0.38311991191E+01 0.79609333056E+01 0.10786204344E+02 0.11712724394E+02 0.11002342050E+02
 0.94600370294E+01 0.78502855506E+01 0.64467865777E+01 0.53450233749E+01 0.45618657100E+01
 0.40740841992E+01 0.38505132113E+01 0.38710963671E+01 0.41342983185E+01 0.46570616362E+01
 0.54676970166E+01 0.65875527211E+01 0.79991803447E+01 0.96076815991E+01 0.11153484892E+02
 0.11902631852E+02 0.11051402760E+02 0.83050789537E+01 0.41999338823E+01 0.49480473667E+01
 0.15780282003E+01 -.25540539125E+00 0.21627449063E+00 0.27904329160E+01 0.63945973239E+01
 0.96357489777E+01 0.11465535091E+02 0.11589605126E+02 0.10445954832E+02 0.88345579070E+01
 0.72970781849E+01 0.60034053464E+01 0.50166865668E+01 0.43369204340E+01 0.39363505951E+01
 0.37862395299E+01 0.38710945962E+01 0.41931492474E+01 0.47709044506E+01 0.56308912213E+01
 0.67881993051E+01 0.82148375365E+01 0.98046807141E+01 0.11277451686E+02 0.11920812530E+02
 0.11051402760E+02 0.85201231935E+01 0.91118435271E+01 0.62913776860E+01 0.38312002325E+01
 0.27904389126E+01 0.36393823939E+01 0.59994493764E+01 0.88407713383E+01 0.11017950665E+02
 0.11819309138E+02 0.11226412996E+02 0.97888565512E+01 0.81958349989E+01 0.67569550187E+01
 0.55853940414E+01 0.47158865202E+01 0.41357995640E+01 0.38159125087E+01 0.37313359952E+01
 0.38711117488E+01 0.42402554512E+01 0.48573634235E+01 0.57458075188E+01 0.69141504138E+01
 0.83263036124E+01 0.98716607842E+01 0.11277451686E+02 0.11902631852E+02 0.11193119678E+02
 0.11418120078E+02 0.99340621124E+01 0.79609297250E+01 0.63946033578E+01 0.59994629280E+01
 0.69872355192E+01 0.88887494117E+01 0.10807791857E+02 0.11899761452E+02 0.11782792508E+02
 0.10656672593E+02 0.91005221517E+01 0.75776121409E+01 0.62567049782E+01 0.52119592696E+01
 0.44554991108E+01 0.39667447142E+01 0.37177284793E+01 0.36881956969E+01 0.38711439322E+01
 0.42731058946E+01 0.49113575417E+01 0.58051580961E+01 0.69570848462E+01 0.83263036124E+01
 0.98046807141E+01 0.11153484892E+02 0.11835367690E+02 0.11686282080E+02 0.11627532885E+02
 0.10786194577E+02 0.96357400108E+01 0.88407800758E+01 0.88887659746E+01 0.97974803045E+01
 0.11091805180E+02 0.12072443525E+02 0.12205813094E+02 0.11393225105E+02 0.99732433574E+01
 0.84331710358E+01 0.70114765728E+01 0.58190138533E+01 0.48981638370E+01 0.42450699915E+01
 0.38356913568E+01 0.36453586041E+01 0.36585388674E+01 0.38711753684E+01 0.42899708883E+01
 0.49297146295E+01 0.58051580961E+01 0.69141504138E+01 0.82148375365E+01 0.96076815991E+01
 0.10903435814E+02 0.10527874909E+02 0.11417063207E+02 0.11712725965E+02 0.11465520658E+02
 0.11017939175E+02 0.10807800294E+02 0.11091819695E+02 0.11768338958E+02 0.12425096485E+02
 0.12586927672E+02 0.12000844592E+02 0.10776340403E+02 0.92895904860E+01 0.78256195568E+01
 0.65250210559E+01 0.54617890604E+01 0.46548939012E+01 0.40910443173E+01 0.37465122873E+01
 0.36011040851E+01 0.36434512329E+01 0.38711883918E+01 0.42899708883E+01 0.49113575417E+01
 0.57458075188E+01 0.67881993051E+01 0.79991803447E+01 0.92923023912E+01 0.88772485777E+01
 0.10037546650E+02 0.11002357309E+02 0.11589608287E+02 0.11819294903E+02 0.11899750688E+02
 0.12072449009E+02 0.12425105182E+02 0.12806027046E+02 0.12908389030E+02 0.12471700482E+02
 0.11462124550E+02 0.10105665543E+02 0.86692521091E+01 0.73131118206E+01 0.61406970608E+01
 0.51981209927E+01 0.44893156655E+01 0.39973154251E+01 0.37014303712E+01 0.35862209822E+01
 0.36434512329E+01 0.38711753684E+01 0.42731058946E+01 0.48573634235E+01 0.56308912213E+01
 0.65875527211E+01 0.76933076891E+01 0.73167379139E+01 0.83870647692E+01 0.94600425104E+01
 0.10445970504E+02 0.11226417388E+02 0.11782782773E+02 0.12205805614E+02 0.12586928902E+02
 0.12908390638E+02 0.13021097596E+02 0.12736262428E+02 0.11968552566E+02 0.10823494036E+02
 0.95000552618E+01 0.81583958405E+01 0.69250058972E+01 0.58752939229E+01 0.50366899841E+01
 0.44055933945E+01 0.39658729491E+01 0.37014303712E+01 0.36011040851E+01 0.36585388674E+01
 0.38711439322E+01 0.42402554512E+01 0.47709044506E+01 0.54676970166E+01 0.63252975127E+01
 0.60181438506E+01 0.68928394209E+01 0.78502727885E+01 0.88345604400E+01 0.97888682509E+01
 0.10656677584E+02 0.11393222059E+02 0.12000841554E+02 0.12471697927E+02 0.12736258298E+02
 0.12677708129E+02 0.12210997265E+02 0.11365283809E+02 0.10255593676E+02 0.90200075091E+01
 0.77951582663E+01 0.66831750198E+01 0.57398639970E+01 0.49823610101E+01 0.44055933945E+01
 0.39973154251E+01 0.37465122873E+01 0.36453586041E+01 0.36881956969E+01 0.38711117488E+01
 0.41931492474E+01 0.46570616362E+01 0.52664485088E+01 0.50394709648E+01 0.56849406699E+01
 0.64467783798E+01 0.72970668961E+01 0.81958333305E+01 0.91005274412E+01 0.99732480189E+01
 0.10776343491E+02 0.11462125606E+02 0.11968548102E+02 0.12210990382E+02 0.12111572695E+02
 0.11645840417E+02 0.10853866114E+02 0.98338337514E+01 0.87121388926E+01 0.76065561227E+01
 0.66010561626E+01 0.57398639970E+01 0.50366899841E+01 0.44893156655E+01 0.40910443173E+01
 0.38356913568E+01 0.37177284793E+01 0.37313359952E+01 0.38710945962E+01 0.41342983185E+01
 0.45224956940E+01 0.43749728025E+01 0.48001589037E+01 0.53450321592E+01 0.60034030518E+01
 0.67569473215E+01 0.75776068622E+01 0.84331699991E+01 0.92895937007E+01 0.10105672032E+02
 0.10823497820E+02 0.11365279729E+02 0.11645833800E+02 0.11599508703E+02 0.11208280481E+02
 0.10514398408E+02 0.96095067112E+01 0.86061263633E+01 0.76065561227E+01 0.66831750198E+01
 0.58752939229E+01 0.51981209927E+01 0.46548939012E+01 0.42450699915E+01 0.39667447142E+01
 0.38159125087E+01 0.37862395299E+01 0.38710963671E+01 0.40668728746E+01 0.39945182603E+01
 0.42227764994E+01 0.45618720204E+01 0.50166956917E+01 0.55853975230E+01 0.62567017210E+01
 0.70114699649E+01 0.78256143059E+01 0.86692528547E+01 0.95000617263E+01 0.10255598599E+02
 0.10853863995E+02 0.11208275768E+02 0.11253631041E+02 0.10970660246E+02 0.10395647279E+02
 0.96095067112E+01 0.87121388926E+01 0.77951582663E+01 0.69250058972E+01 0.61406970608E+01
 0.54617890604E+01 0.48981638370E+01 0.44554991108E+01 0.41357995640E+01 0.39363505951E+01
 0.38505132113E+01 0.38711080704E+01 0.38711161365E+01 0.39211148828E+01 0.40740752764E+01
 0.43369208971E+01 0.47158939941E+01 0.52119659855E+01 0.58190147625E+01 0.65250161191E+01
 0.73131052281E+01 0.81583935826E+01 0.90200115282E+01 0.98338387188E+01 0.10514398396E+02
 0.10970657155E+02 0.11131705120E+02 0.10970660246E+02 0.10514398408E+02 0.98338337514E+01
 0.90200075091E+01 0.81583958405E+01 0.73131118206E+01 0.65250210559E+01 0.58190138533E+01
 0.52119592696E+01 0.47158865202E+01 0.43369204340E+01 0.40740841992E+01 0.39211248136E+01
 0.39945299417E+01 0.38711134370E+01 0.38505065197E+01 0.39363401326E+01 0.41357956165E+01
 0.44555028312E+01 0.48981701158E+01 0.54617931892E+01 0.61406961349E+01 0.69250001834E+01
 0.77951532702E+01 0.87121401052E+01 0.96095114166E+01 0.10395648154E+02 0.10970657155E+02
 0.11253631041E+02 0.11208280481E+02 0.10853866114E+02 0.10255593676E+02 0.95000552618E+01
 0.86692521091E+01 0.78256195568E+01 0.70114765728E+01 0.62567049782E+01 0.55853940414E+01
 0.50166865668E+01 0.45618657100E+01 0.42227812093E+01 0.43749725767E+01 0.40668839529E+01
 0.38711046226E+01 0.37862366763E+01 0.38159042389E+01 0.39667388612E+01 0.42450684277E+01
 0.46548967062E+01 0.51981272128E+01 0.58752975492E+01 0.66831708625E+01 0.76065494907E+01
 0.86061263739E+01 0.96095114166E+01 0.10514398396E+02 0.11208275768E+02 0.11599508703E+02
 0.11645840417E+02 0.11365283809E+02 0.10823494036E+02 0.10105665543E+02 0.92895904860E+01
 0.84331710358E+01 0.75776121409E+01 0.67569550187E+01 0.60034053464E+01 0.53450233749E+01
 0.48001473466E+01 0.50394569867E+01 0.45224917451E+01 0.41343059812E+01 0.38711018734E+01
 0.37313368843E+01 0.37177257042E+01 0.38356859186E+01 0.40910372013E+01 0.44893140039E+01
 0.50366973096E+01 0.57398706029E+01 0.66010527303E+01 0.76065494907E+01 0.87121401052E+01
 0.98338387188E+01 0.10853863995E+02 0.11645833800E+02 0.12111572695E+02 0.12210997265E+02
 0.11968552566E+02 0.11462124550E+02 0.10776340403E+02 0.99732433574E+01 0.91005221517E+01
 0.81958349989E+01 0.72970781849E+01 0.64467865777E+01 0.56849336999E+01 0.60181395589E+01
 0.52664363786E+01 0.46570563131E+01 0.41931510129E+01 0.38711144962E+01 0.36881997682E+01
 0.36453627380E+01 0.37465084239E+01 0.39973040808E+01 0.44055886971E+01 0.49823686720E+01
 0.57398706029E+01 0.66831708625E+01 0.77951532702E+01 0.90200115282E+01 0.10255598599E+02
 0.11365279729E+02 0.12210990382E+02 0.12677708129E+02 0.12736262428E+02 0.12471700482E+02
 0.12000844592E+02 0.11393225105E+02 0.10656672593E+02 0.97888565512E+01 0.88345579070E+01
 0.78502855506E+01 0.68928510101E+01 0.73167486709E+01 0.63252962456E+01 0.54676909382E+01
 0.47709000931E+01 0.42402500991E+01 0.38711404865E+01 0.36585452507E+01 0.36011139058E+01
 0.37014277862E+01 0.39658600244E+01 0.44055886971E+01 0.50366973096E+01 0.58752975492E+01
 0.69250001834E+01 0.81583935826E+01 0.95000617263E+01 0.10823497820E+02 0.11968548102E+02
 0.12736258298E+02 0.13021097596E+02 0.12908389030E+02 0.12586927672E+02 0.12205813094E+02
 0.11782792508E+02 0.11226412996E+02 0.10445954832E+02 0.94600370294E+01 0.83870759475E+01
 0.88772549871E+01 0.76933133543E+01 0.65875544156E+01 0.56308936847E+01 0.48573613807E+01
 0.42730941180E+01 0.38711666978E+01 0.36434588369E+01 0.35862329964E+01 0.37014277862E+01
 0.39973040808E+01 0.44893140039E+01 0.51981272128E+01 0.61406961349E+01 0.73131052281E+01
 0.86692528547E+01 0.10105672032E+02 0.11462125606E+02 0.12471697927E+02 0.12908390638E+02
 0.12806027046E+02 0.12425096485E+02 0.12072443525E+02 0.11899761452E+02 0.11819309138E+02
 0.11589605126E+02 0.11002342050E+02 0.10037540663E+02 0.10527870955E+02 0.92923017836E+01
 0.79991783436E+01 0.67882035277E+01 0.57458181970E+01 0.49113577213E+01 0.42899553008E+01
 0.38711776914E+01 0.36434588369E+01 0.36011139058E+01 0.37465084239E+01 0.40910372013E+01
 0.46548967062E+01 0.54617931892E+01 0.65250161191E+01 0.78256143059E+01 0.92895937007E+01
 0.10776343491E+02 0.12000841554E+02 0.12586928902E+02 0.12425105182E+02 0.11768338958E+02
 0.11091805180E+02 0.10807791857E+02 0.11017950665E+02 0.11465535091E+02 0.11712724394E+02
 0.11417053237E+02 0.11686280988E+02 0.10903435491E+02 0.96076735724E+01 0.82148280404E+01
 0.69141563612E+01 0.58051737847E+01 0.49297157096E+01 0.42899553008E+01 0.38711666978E+01
 0.36585452507E+01 0.36453627380E+01 0.38356859186E+01 0.42450684277E+01 0.48981701158E+01
 0.58190147625E+01 0.70114699649E+01 0.84331699991E+01 0.99732480189E+01 0.11393222059E+02
 0.12205805614E+02 0.12072449009E+02 0.11091819695E+02 0.97974803045E+01 0.88887494117E+01
 0.88407713383E+01 0.96357489777E+01 0.10786204344E+02 0.11627533035E+02 0.11418121864E+02
 0.11835376391E+02 0.11153488284E+02 0.98046670516E+01 0.83262895281E+01 0.69570914093E+01
 0.58051737847E+01 0.49113577213E+01 0.42730941180E+01 0.38711404865E+01 0.36881997682E+01
 0.37177257042E+01 0.39667388612E+01 0.44555028312E+01 0.52119659855E+01 0.62567017210E+01
 0.75776068622E+01 0.91005274412E+01 0.10656677584E+02 0.11782782773E+02 0.11899750688E+02
 0.10807800294E+02 0.88887659746E+01 0.69872355192E+01 0.59994493764E+01 0.63945973239E+01
 0.79609333056E+01 0.99340636088E+01 0.91118357835E+01 0.11193122770E+02 0.11902648115E+02
 0.11277457387E+02 0.98716450207E+01 0.83262895281E+01 0.69141563612E+01 0.57458181970E+01
 0.48573613807E+01 0.42402500991E+01 0.38711144962E+01 0.37313368843E+01 0.38159042389E+01
 0.41357956165E+01 0.47158939941E+01 0.55853975230E+01 0.67569473215E+01 0.81958333305E+01
 0.97888682509E+01 0.11226417388E+02 0.11819294903E+02 0.11017939175E+02 0.88407800758E+01
 0.59994629280E+01 0.36393823939E+01 0.27904329160E+01 0.38311991191E+01 0.62913744453E+01
 0.49480378963E+01 0.85201082943E+01 0.11051406584E+02 0.11920831630E+02 0.11277457387E+02
 0.98046670516E+01 0.82148280404E+01 0.67882035277E+01 0.56308936847E+01 0.47709000931E+01
 0.41931510129E+01 0.38711018734E+01 0.37862366763E+01 0.39363401326E+01 0.43369208971E+01
 0.50166956917E+01 0.60034030518E+01 0.72970668961E+01 0.88345604400E+01 0.10445970504E+02
 0.11589608287E+02 0.11465520658E+02 0.96357400108E+01 0.63946033578E+01 0.27904389126E+01
 0.21627449063E+00 -.25540148101E+00 0.15780326090E+01 0.35464701737E-01 0.41999207107E+01
 0.83050613704E+01 0.11051406584E+02 0.11902648115E+02 0.11153488284E+02 0.96076735724E+01
 0.79991783436E+01 0.65875544156E+01 0.54676909382E+01 0.46570563131E+01 0.41343059812E+01
 0.38711046226E+01 0.38505065197E+01 0.40740752764E+01 0.45618720204E+01 0.53450321592E+01
 0.64467783798E+01 0.78502727885E+01 0.94600425104E+01 0.11002357309E+02 0.11712725965E+02
 0.10786194577E+02 0.79609297250E+01 0.38312002325E+01 -.25540539125E+00 -.27484679437E+01
 -.26372867544E+01 -.39439300807E+01 -.51284993585E+00 0.41999207107E+01 0.85201082943E+01
 0.11193122770E+02 0.11835376391E+02 0.10903435491E+02 0.92923017836E+01 0.76933133543E+01
 0.63252962456E+01 0.52664363786E+01 0.45224917451E+01 0.40668839529E+01 0.38711134370E+01
 0.39211148828E+01 0.42227764994E+01 0.48001589037E+01 0.56849406699E+01 0.68928394209E+01
 0.83870647692E+01 0.10037546650E+02 0.11417063207E+02 0.11627532885E+02 0.99340621124E+01
 0.62913776860E+01 0.15780282003E+01 -.26372998176E+01 -.47609522685E+01 -.39438868155E+01
 -.28260804425E+01 0.65874194941E+00 0.51530336910E+01 0.90641149168E+01 0.11281690518E+02
 0.11560624764E+02 0.10435134658E+02 0.87932996641E+01 0.72261574495E+01 0.59107557140E+01
 0.49082895777E+01 0.42155045651E+01 0.38031339229E+01 0.36434527659E+01 0.37242980460E+01
 0.40533206124E+01 0.46555229635E+01 0.55620433211E+01 0.67860012838E+01 0.82860475087E+01
 0.99255238183E+01 0.11245573179E+02 0.11363394741E+02 0.96149900961E+01 0.60421008454E+01
 0.15750862346E+01 -.22461767442E+01 -.28260959485E+01 -.39438887022E+01 -.22461647582E+01
 0.15750958712E+01 0.60421011734E+01 0.96149868338E+01 0.11363390029E+02 0.11245566312E+02
 0.99255223583E+01 0.82860572541E+01 0.67860109925E+01 0.55620394784E+01 0.46555128833E+01
 0.40533201124E+01 0.37243040248E+01 0.36434509292E+01 0.38031267785E+01 0.42155070595E+01
 0.49083011698E+01 0.59107607867E+01 0.72261512575E+01 0.87932922677E+01 0.10435131617E+02
 0.11560623995E+02 0.11281694418E+02 0.90641254018E+01 0.51530396518E+01 0.65873219487E+00
 0.74584823263E+00 -.21535701056E+01 -.26372488063E+01 -.52144570760E+00 0.33156812208E+01
 0.73842942124E+01 0.10306410489E+02 0.11397682388E+02 0.10826008271E+02 0.93439901236E+01
 0.77435687343E+01 0.63335216466E+01 0.52165271316E+01 0.44145321433E+01 0.39065820741E+01
 0.36616191486E+01 0.36585399921E+01 0.38944434484E+01 0.43852804867E+01 0.51599236940E+01
 0.62438646169E+01 0.76294401490E+01 0.92373656374E+01 0.10849426171E+02 0.11795377189E+02
 0.11244848586E+02 0.88124592442E+01 0.49121316731E+01 0.53807836634E+01 0.18259415631E+01
 -.34745388999E+00 -.25536894487E+00 0.20382725402E+01 0.55532191582E+01 0.88989440911E+01
 0.10948050135E+02 0.11295502697E+02 0.10294705928E+02 0.87257032371E+01 0.71939526504E+01
 0.58921256480E+01 0.48915282045E+01 0.41969238667E+01 0.37821321906E+01 0.36180512373E+01
 0.36882026684E+01 0.39940576949E+01 0.45541394011E+01 0.53967722154E+01 0.65421728179E+01
 0.79718447120E+01 0.95921965442E+01 0.11155028607E+02 0.11974133662E+02 0.11317069850E+02
 0.89436442753E+01 0.94429563102E+01 0.64712576537E+01 0.37009905199E+01 0.22735804373E+01
 0.27904571010E+01 0.49904146163E+01 0.78875832643E+01 0.10287787107E+02 0.11369230861E+02
 0.11001894972E+02 0.96738386530E+01 0.81026948207E+01 0.66639778994E+01 0.54828726104E+01
 0.46019503432E+01 0.40123404919E+01 0.36854769824E+01 0.35957146333E+01 0.37313533044E+01
 0.40973634515E+01 0.47133303309E+01 0.56053592922E+01 0.67874500510E+01 0.82315909979E+01
 0.98352971777E+01 0.11342227711E+02 0.12106281920E+02 0.11512438032E+02 0.11788676695E+02
 0.10200220894E+02 0.79675274615E+01 0.60308585253E+01 0.52620805547E+01 0.59994620489E+01
 0.78570866984E+01 0.99357478393E+01 0.11305493757E+02 0.11464216984E+02 0.10517075506E+02
 0.90173154830E+01 0.75039284052E+01 0.61777786855E+01 0.51235048305E+01 0.43597208286E+01
 0.38681609607E+01 0.36205639347E+01 0.35957119884E+01 0.37862695475E+01 0.41994429914E+01
 0.48542585640E+01 0.57731915432E+01 0.69638034321E+01 0.83909598618E+01 0.99495423793E+01
 0.11400348831E+02 0.12178575866E+02 0.12157535112E+02 0.12058682860E+02 0.11038182746E+02
 0.95770081644E+01 0.84104772184E+01 0.81397628734E+01 0.88887487116E+01 0.10226828642E+02
 0.11414206073E+02 0.11814611390E+02 0.11219040056E+02 0.99009894226E+01 0.83794342948E+01
 0.69568586977E+01 0.57559403867E+01 0.48279689070E+01 0.41735596060E+01 0.37693806554E+01
 0.35896927226E+01 0.36180426691E+01 0.38505540310E+01 0.42951989171E+01 0.49689383485E+01
 0.58896725668E+01 0.70590757648E+01 0.84380228325E+01 0.99249605298E+01 0.11317304706E+02
 0.11083878070E+02 0.12001292356E+02 0.12216399818E+02 0.11758542814E+02 0.10999792955E+02
 0.10459624677E+02 0.10498602898E+02 0.11091791811E+02 0.11836245173E+02 0.12193848732E+02
 0.11811185495E+02 0.10712691602E+02 0.92561163134E+01 0.77944763860E+01 0.64861862363E+01
 0.54150062822E+01 0.46063528522E+01 0.40490947412E+01 0.37187386090E+01 0.35935723502E+01
 0.36616031324E+01 0.39211695772E+01 0.43795573731E+01 0.50505019177E+01 0.59470067162E+01
 0.70661133841E+01 0.83681181593E+01 0.97603232052E+01 0.94641168320E+01 0.10701156249E+02
 0.11676956642E+02 0.12169403149E+02 0.12193221660E+02 0.11997781590E+02 0.11903362413E+02
 0.12081018004E+02 0.12425073851E+02 0.12612665381E+02 0.12314765468E+02 0.11415361008E+02
 0.10092648794E+02 0.86580481246E+01 0.72942516784E+01 0.61128959869E+01 0.51673838166E+01
 0.44651883969E+01 0.39892569634E+01 0.37170278026E+01 0.36314941906E+01 0.37242790657E+01
 0.39945684015E+01 0.44477633972E+01 0.50937555631E+01 0.59410184060E+01 0.69837248562E+01
 0.81847845897E+01 0.78998397471E+01 0.90544265052E+01 0.10187998142E+02 0.11177610932E+02
 0.11868629178E+02 0.12247170410E+02 0.12446438853E+02 0.12624001552E+02 0.12820851353E+02
 0.12908362140E+02 0.12669333232E+02 0.11959145185E+02 0.10830842492E+02 0.95021624950E+01
 0.81506145309E+01 0.69071781664E+01 0.58536326126E+01 0.50215713536E+01 0.44080019532E+01
 0.39948283175E+01 0.37634825179E+01 0.37015537067E+01 0.38030995457E+01 0.40669057708E+01
 0.44957509916E+01 0.50957196144E+01 0.58717454986E+01 0.68171034964E+01 0.65775198474E+01
 0.75324036043E+01 0.85574739354E+01 0.95821575445E+01 0.10532987721E+02 0.11326474619E+02
 0.11921453451E+02 0.12356673996E+02 0.12673055462E+02 0.12837163780E+02 0.12736236219E+02
 0.12257039704E+02 0.11391523059E+02 0.10261790475E+02 0.90098539995E+01 0.77727078914E+01
 0.66564188172E+01 0.57203756861E+01 0.49825675932E+01 0.44359340320E+01 0.40649666835E+01
 0.38561062079E+01 0.38008378471E+01 0.38944085602E+01 0.41343042420E+01 0.45205312202E+01
 0.50560428796E+01 0.57436406539E+01 0.55652563442E+01 0.62812258265E+01 0.71069224024E+01
 0.80049606539E+01 0.89234481114E+01 0.98088765910E+01 0.10617741359E+02 0.11310680521E+02
 0.11862253530E+02 0.12242075528E+02 0.12385021306E+02 0.12210975218E+02 0.11686434969E+02
 0.10853428776E+02 0.98052395840E+01 0.86662122943E+01 0.75553138564E+01 0.65584860124E+01
 0.57203006079E+01 0.50522647325E+01 0.45482013053E+01 0.41975144990E+01 0.39918150407E+01
 0.39255118576E+01 0.39940161005E+01 0.41931242975E+01 0.45205179308E+01 0.49771697938E+01
 0.48641760210E+01 0.53483993447E+01 0.59477125758E+01 0.66505386733E+01 0.74307606719E+01
 0.82513149535E+01 0.90727400015E+01 0.98592329938E+01 0.10575689943E+02 0.11177252050E+02
 0.11601877380E+02 0.11777533771E+02 0.11645824012E+02 0.11190295347E+02 0.10451817885E+02
 0.95205745851E+01 0.85087485368E+01 0.75187855481E+01 0.66222486620E+01 0.58556561424E+01
 0.52296031297E+01 0.47421947623E+01 0.43889541190E+01 0.41663338894E+01 0.40707868442E+01
 0.40973163429E+01 0.42402023337E+01 0.44957137121E+01 0.44477090659E+01 0.47242675135E+01
 0.51068810426E+01 0.55976447732E+01 0.61903381704E+01 0.68676790588E+01 0.76040647796E+01
 0.83708679876E+01 0.91381574540E+01 0.98692866251E+01 0.10512187890E+02 0.10997072237E+02
 0.11248264289E+02 0.11208269409E+02 0.10862142524E+02 0.10247989494E+02 0.94469953410E+01
 0.85581903220E+01 0.76710352963E+01 0.68482280583E+01 0.61234977827E+01 0.55103292676E+01
 0.50131172354E+01 0.46339919956E+01 0.43738787852E+01 0.42308122892E+01 0.41993920622E+01
 0.42730326886E+01 0.42898887155E+01 0.43794951373E+01 0.45660297297E+01 0.48551030715E+01
 0.52508761373E+01 0.57510039881E+01 0.63448869146E+01 0.70159286217E+01 0.77444439343E+01
 0.85062486313E+01 0.92654639474E+01 0.99666273938E+01 0.10534956651E+02 0.10890210335E+02
 0.10970652907E+02 0.10755721723E+02 0.10275153530E+02 0.95993857176E+01 0.88163360404E+01
 0.80065566032E+01 0.72281035417E+01 0.65152133341E+01 0.58863530561E+01 0.53532363959E+01
 0.49249006913E+01 0.46067594301E+01 0.43985914353E+01 0.42951468488E+01 0.43795081545E+01
 0.42898915298E+01 0.42951375555E+01 0.43985814029E+01 0.46067573068E+01 0.49249055923E+01
 0.53532443514E+01 0.58863596853E+01 0.65152126167E+01 0.72280945693E+01 0.80065490503E+01
 0.88163386831E+01 0.95993930594E+01 0.10275154734E+02 0.10755718236E+02 0.10970654110E+02
 0.10890215382E+02 0.10534955482E+02 0.99666188277E+01 0.92654585940E+01 0.85062527631E+01
 0.77444522660E+01 0.70159338796E+01 0.63448863518E+01 0.57509970374E+01 0.52508659494E+01
 0.48550991872E+01 0.45660384576E+01 0.47242721256E+01 0.44477220747E+01 0.42730399255E+01
 0.41993888872E+01 0.42308045780E+01 0.43738722325E+01 0.46339900017E+01 0.50131229241E+01
 0.55103395622E+01 0.61235017364E+01 0.68482208157E+01 0.76710269311E+01 0.85581911047E+01
 0.94470003023E+01 0.10247988853E+02 0.10862139139E+02 0.11208272335E+02 0.11248271291E+02
 0.10997072884E+02 0.10512180449E+02 0.98692794928E+01 0.91381564891E+01 0.83708725505E+01
 0.76040725595E+01 0.68676853622E+01 0.61903353685E+01 0.55976324272E+01 0.51068716331E+01
 0.53483870619E+01 0.48641754720E+01 0.44957227386E+01 0.42402108877E+01 0.40973197414E+01
 0.40707845122E+01 0.41663256744E+01 0.43889457218E+01 0.47421962424E+01 0.52296140776E+01
 0.58556629277E+01 0.66222439525E+01 0.75187789040E+01 0.85087493887E+01 0.95205773802E+01
 0.10451814556E+02 0.11190290768E+02 0.11645826915E+02 0.11777541365E+02 0.11601880482E+02
 0.11177248434E+02 0.10575683481E+02 0.98592268613E+01 0.90727382785E+01 0.82513222554E+01
 0.74307725318E+01 0.66505415913E+01 0.59477016893E+01 0.62812193888E+01 0.55652452325E+01
 0.49771650038E+01 0.45205200314E+01 0.41931304796E+01 0.39940246210E+01 0.39255161332E+01
 0.39918079001E+01 0.41975021493E+01 0.45481987512E+01 0.50522737787E+01 0.57203072465E+01
 0.65584831431E+01 0.75553104427E+01 0.86662149173E+01 0.98052412855E+01 0.10853423572E+02
 0.11686429111E+02 0.12210976066E+02 0.12385026658E+02 0.12242080175E+02 0.11862255646E+02
 0.11310677601E+02 0.10617731679E+02 0.98088679723E+01 0.89234522270E+01 0.80049748646E+01
 0.71069302588E+01 0.75324134916E+01 0.65775193582E+01 0.57436347302E+01 0.50560361845E+01
 0.45205255033E+01 0.41343053340E+01 0.38944194562E+01 0.38008475418E+01 0.38561017929E+01
 0.40649539142E+01 0.44359294801E+01 0.49825733791E+01 0.57203794483E+01 0.66564164290E+01
 0.77727077025E+01 0.90098586588E+01 0.10261792124E+02 0.11391518202E+02 0.12257034009E+02
 0.12736233653E+02 0.12837163814E+02 0.12673059616E+02 0.12356682013E+02 0.11921455971E+02
 0.11326464171E+02 0.10532974093E+02 0.95821571297E+01 0.85574863154E+01 0.90544332458E+01
 0.78998477513E+01 0.68171085914E+01 0.58717472271E+01 0.50957137467E+01 0.44957389846E+01
 0.40669011464E+01 0.38031097358E+01 0.37015655979E+01 0.37634809196E+01 0.39948184459E+01
 0.44079981548E+01 0.50215738800E+01 0.58536323026E+01 0.69071753316E+01 0.81506162276E+01
 0.95021675806E+01 0.10830844324E+02 0.11959143288E+02 0.12669330103E+02 0.12908356186E+02
 0.12820844326E+02 0.12624003029E+02 0.12446450876E+02 0.12247178252E+02 0.11868620951E+02
 0.11177596240E+02 0.10187993681E+02 0.10701149791E+02 0.94641158023E+01 0.81847873230E+01
 0.69837335151E+01 0.59410276883E+01 0.50937525748E+01 0.44477485518E+01 0.39945597295E+01
 0.37242861104E+01 0.36315042659E+01 0.37170278322E+01 0.39892519281E+01 0.44651873685E+01
 0.51673840205E+01 0.61128924787E+01 0.72942486609E+01 0.86580498079E+01 0.10092651443E+02
 0.11415362220E+02 0.12314768267E+02 0.12612667022E+02 0.12425066040E+02 0.12081004615E+02
 0.11903359933E+02 0.11997794142E+02 0.12193232500E+02 0.12169399322E+02 0.11676945572E+02
 0.12001288652E+02 0.11083872391E+02 0.97603147194E+01 0.83681140852E+01 0.70661226574E+01
 0.59470208292E+01 0.50505024393E+01 0.43795438419E+01 0.39211600415E+01 0.36616059054E+01
 0.35935774151E+01 0.37187386748E+01 0.40490945862E+01 0.46063548351E+01 0.54150052573E+01
 0.64861819803E+01 0.77944746704E+01 0.92561165329E+01 0.10712689111E+02 0.11811184662E+02
 0.12193856142E+02 0.11836252373E+02 0.11091784597E+02 0.10498586355E+02 0.10459618504E+02
 0.10999802133E+02 0.11758552880E+02 0.12216401040E+02 0.12058688070E+02 0.12157540186E+02
 0.11317302237E+02 0.99249472644E+01 0.84380128749E+01 0.70590827892E+01 0.58896871038E+01
 0.49689414515E+01 0.42951900873E+01 0.38505469484E+01 0.36180414962E+01 0.35896916625E+01
 0.37693797885E+01 0.41735628085E+01 0.48279722347E+01 0.57559386560E+01 0.69568564600E+01
 0.83794358750E+01 0.99009879200E+01 0.11219031362E+02 0.11814607299E+02 0.11414216041E+02
 0.10226840088E+02 0.88887444425E+01 0.81397478669E+01 0.84104691699E+01 0.95770110357E+01
 0.11038188203E+02 0.10200219288E+02 0.11788683555E+02 0.12178588253E+02 0.11400350740E+02
 0.99495284403E+01 0.83909470788E+01 0.69638063848E+01 0.57732020070E+01 0.48542622855E+01
 0.41994404004E+01 0.37862669954E+01 0.35957082040E+01 0.36205580433E+01 0.38681594617E+01
 0.43597252666E+01 0.51235067685E+01 0.61777759203E+01 0.75039298840E+01 0.90173217497E+01
 0.10517073295E+02 0.11464203450E+02 0.11305486227E+02 0.99357570647E+01 0.78570991787E+01
 0.59994619592E+01 0.52620715909E+01 0.60308513628E+01 0.79675231469E+01 0.64712476488E+01
 0.94429475272E+01 0.11512443825E+02 0.12106297776E+02 0.11342233457E+02 0.98352866621E+01
 0.82315794643E+01 0.67874486859E+01 0.56053627129E+01 0.47133326502E+01 0.40973665226E+01
 0.37313553270E+01 0.35957097558E+01 0.36854692185E+01 0.40123398693E+01 0.46019543989E+01
 0.54828707612E+01 0.66639732417E+01 0.81026998108E+01 0.96738494093E+01 0.11001893707E+02
 0.11369215984E+02 0.10287777409E+02 0.78875885124E+01 0.49904240703E+01 0.27904607771E+01
 0.22735802090E+01 0.37009869451E+01 0.18259431900E+01 0.53807712908E+01 0.89436306759E+01
 0.11317072520E+02 0.11974148096E+02 0.11155036127E+02 0.95921921596E+01 0.79718380383E+01
 0.65421683522E+01 0.53967681309E+01 0.45541392383E+01 0.39940643443E+01 0.36882073793E+01
 0.36180461855E+01 0.37821257610E+01 0.41969260768E+01 0.48915314337E+01 0.58921192292E+01
 0.71939454662E+01 0.87257097308E+01 0.10294719036E+02 0.11295503700E+02 0.10948038321E+02
 0.88989347591E+01 0.55532185621E+01 0.20382755184E+01 -.25536340460E+00 -.34744546831E+00
 -.21535558563E+01 0.74585491156E+00 0.49121208917E+01 0.88124449414E+01 0.11244847498E+02
 0.11795385928E+02 0.10849432667E+02 0.92373679185E+01 0.76294401820E+01 0.62438590020E+01
 0.51599141104E+01 0.43852782685E+01 0.38944512194E+01 0.36585445183E+01 0.36616139271E+01
 0.39065790327E+01 0.44145384641E+01 0.52165301732E+01 0.63335120330E+01 0.77435593980E+01
 0.93439952759E+01 0.10826020160E+02 0.11397685837E+02 0.10306405422E+02 0.73842882298E+01
 0.33156750066E+01 -.52145073850E+00 -.26372439976E+01 0.35578677349E-01 0.74592103020E+00
 0.34241425132E+01 0.69767758839E+01 0.10057994766E+02 0.11701676387E+02 0.11682147970E+02
 0.10463095918E+02 0.88271873572E+01 0.72755873852E+01 0.59663130283E+01 0.49566349364E+01
 0.42438989151E+01 0.38008835391E+01 0.36011203805E+01 0.36315290706E+01 0.38963853358E+01
 0.44162602280E+01 0.52202909711E+01 0.63272005418E+01 0.77142403255E+01 0.92820724491E+01
 0.10747322329E+02 0.11390149171E+02 0.10542907758E+02 0.80904578244E+01 0.46870248247E+01
 0.15751558960E+01 0.65880398394E+00 -.51273368154E+00 0.65880798841E+00 0.36762772452E+01
 0.73093138257E+01 0.10215202439E+02 0.11550532930E+02 0.11252218289E+02 0.99005108898E+01
 0.82833858132E+01 0.68029475947E+01 0.55869132487E+01 0.46752986986E+01 0.40565663992E+01
 0.37015999022E+01 0.35862410140E+01 0.37015976499E+01 0.40565687497E+01 0.46753064344E+01
 0.55869171180E+01 0.68029410383E+01 0.82833752553E+01 0.99005079888E+01 0.11252225446E+02
 0.11550541637E+02 0.10215204350E+02 0.73093087992E+01 0.36762705829E+01 0.34241386423E+01
 0.74591522826E+00 0.35574157017E-01 0.15751563535E+01 0.46870313916E+01 0.80904663916E+01