    2    2   15    1
  0.1529437E+02  0.3691622E-09  0.3691622E-09  0.3691622E-09  0.5000000E-15
  1.000000000000000E-004
  CAR 
 unknown system                          
      8      3      8
 
  0.2500000E+00  0.2500000E+00  0.2500000E+00  0.2500000E+00
    1        3.378448   1.000000
    2        3.378450   1.000000
    3        4.030493   1.000000
    4        4.030497   1.000000
    5       13.222040   0.000000
    6       13.222040   0.000000
    7       15.019581   0.000000
    8       15.019581   0.000000
 
 -0.2500000E+00  0.2500000E+00  0.2500000E+00  0.5000000E+00
    1       -3.164453   1.000000
    2        1.892105   1.000000
    3        3.618778   1.000000
    4        8.538171   0.500000
    5       12.891834   0.000000
    6       16.115416   0.000000
    7       17.323646   0.000000
    8       18.261620   0.000000
 
 -0.2500000E+00 -0.2500000E+00  0.2500000E+00  0.2500000E+00
    1        0.830614   1.000000
    2        5.740056   1.000000
    3        5.828925   1.000000
    4        7.262982   1.000000
    5        7.262987   1.000000
    6       11.526323   0.000000
    7       12.284184   0.000000
    8       12.284205   0.000000
