unknown system                          
   1.00000000000000     
    -2.450000    2.450000    1.274000
     2.450000   -2.450000    1.274000
     2.450000    2.450000   -1.274000
   Si
     2
Direct
  0.250000  0.750000  0.500000
  0.000000  0.000000  0.000000
 
   36   36   36
 -.51462017623E+01 -.42216629020E+01 -.16830091770E+01 0.18463595051E+01 0.55613091975E+01
 0.87170756724E+01 0.10816027085E+02 0.11689778363E+02 0.11477233581E+02 0.10529405739E+02
 0.92772778958E+01 0.80222516792E+01 0.68760983391E+01 0.59028937118E+01 0.51304040762E+01
 0.45584806313E+01 0.41714532821E+01 0.39495811826E+01 0.38775255579E+01 0.39495777288E+01
 0.41714537900E+01 0.45584847851E+01 0.51304039383E+01 0.59028893133E+01 0.68760980425E+01
 0.80222563098E+01 0.92772793077E+01 0.10529402058E+02 0.11477231574E+02 0.11689779929E+02
 0.10816027316E+02 0.87170745785E+01 0.55613113878E+01 0.18463623555E+01 -.16830126963E+01
 -.42216697599E+01 -.42216697599E+01 -.47207757870E+01 -.34155405464E+01 -.63840948864E+00
 0.29338106687E+01 0.65007037418E+01 0.93716870552E+01 0.11129296722E+02 0.11685357086E+02
 0.11239328376E+02 0.10172212770E+02 0.89043295362E+01 0.76727425950E+01 0.65708250403E+01
 0.56527600770E+01 0.49379164653E+01 0.44208321416E+01 0.40836851959E+01 0.39070103875E+01
 0.38773083382E+01 0.39914127530E+01 0.42573962854E+01 0.46919415885E+01 0.53144048791E+01
 0.61376579547E+01 0.71562160187E+01 0.83344323780E+01 0.96000727439E+01 0.10818416750E+02
 0.11642529460E+02 0.11651807127E+02 0.10536403227E+02 0.82212093833E+01 0.49467043274E+01
 0.12693168850E+01 -.20446202037E+01 -.16830126963E+01 -.34155452478E+01 -.34905538412E+01
 -.18908206626E+01 0.97402172662E+00 0.44076101890E+01 0.76501109223E+01 0.10092900352E+02
 0.11413406269E+02 0.11605507346E+02 0.10921121657E+02 0.97568395398E+01 0.84930170192E+01
 0.72978924421E+01 0.62512084216E+01 0.53961137592E+01 0.47436246692E+01 0.42836446726E+01
 0.39969954661E+01 0.38651332543E+01 0.38767603208E+01 0.40312519001E+01 0.43387020239E+01
 0.48166032776E+01 0.54833318969E+01 0.63484920095E+01 0.74010197699E+01 0.85984333571E+01
 0.98624933694E+01 0.11034911666E+02 0.11747366934E+02 0.11604291534E+02 0.10344340161E+02
 0.79543231731E+01 0.47329638807E+01 0.12693168850E+01 0.18463623555E+01 -.63841118565E+00
 -.18908218704E+01 -.15874534754E+01 0.18936179106E+00 0.29799678711E+01 0.61034995683E+01
 0.88723748689E+01 0.10780440860E+02 0.11607158888E+02 0.11424128692E+02 0.10523338116E+02
 0.92994761404E+01 0.80563730909E+01 0.69103284760E+01 0.59281759113E+01 0.51416298614E+01
 0.45539637256E+01 0.41514009420E+01 0.39142568608E+01 0.38254700802E+01 0.38761378002E+01
 0.40680014872E+01 0.44127410585E+01 0.49281155145E+01 0.56310155926E+01 0.65275485282E+01
 0.76015109551E+01 0.88050196362E+01 0.10056021614E+02 0.11178249627E+02 0.11804162617E+02
 0.11573339506E+02 0.10276068816E+02 0.79543231731E+01 0.49467043274E+01 0.55613113878E+01
 0.29338114470E+01 0.97402223268E+00 0.18936414757E+00 0.78869956596E+00 0.26085151442E+01
 0.51698392374E+01 0.78397354419E+01 0.10027404435E+02 0.11341032817E+02 0.11661608431E+02
 0.11128511780E+02 0.10057959032E+02 0.88158045712E+01 0.76082884091E+01 0.65227660019E+01
 0.56122387314E+01 0.48973819969E+01 0.43748139408E+01 0.40281921999E+01 0.38381371631E+01
 0.37894831520E+01 0.38757319140E+01 0.41006792906E+01 0.44771104936E+01 0.50225439741E+01
 0.57520007023E+01 0.66681020962E+01 0.77502728954E+01 0.89469278143E+01 0.10174409650E+02
 0.11249434611E+02 0.11821991668E+02 0.11573339506E+02 0.10344340161E+02 0.82212093833E+01
 0.87170745785E+01 0.65007026837E+01 0.44076087568E+01 0.29799701342E+01 0.26085199736E+01
 0.33973554041E+01 0.51261632823E+01 0.73271600015E+01 0.94418514045E+01 0.10991820447E+02
 0.11702572733E+02 0.11549082461E+02 0.10723850366E+02 0.95490785997E+01 0.83205554665E+01
 0.71630368681E+01 0.61474608483E+01 0.53130302584E+01 0.46705042066E+01 0.42112573591E+01
 0.39175247407E+01 0.37709204955E+01 0.37584055871E+01 0.38757324456E+01 0.41283546120E+01
 0.45296771144E+01 0.50965238906E+01 0.58417914017E+01 0.67648549899E+01 0.78417927691E+01
 0.90191562158E+01 0.10214229475E+02 0.11249434611E+02 0.11804162617E+02 0.11604291534E+02
 0.10536403227E+02 0.10816027316E+02 0.93716866191E+01 0.76501072612E+01 0.61034964594E+01
 0.51698422637E+01 0.51261688866E+01 0.59895326833E+01 0.75097321678E+01 0.92569801265E+01
 0.10765625762E+02 0.11675812263E+02 0.11825114000E+02 0.11268954559E+02 0.10234710582E+02
 0.90245647620E+01 0.78295495862E+01 0.67347067647E+01 0.57957085070E+01 0.50389608288E+01
 0.44669748282E+01 0.40674298190E+01 0.38221892316E+01 0.37143704344E+01 0.37331106009E+01
 0.38761390823E+01 0.41501308072E+01 0.45686380049E+01 0.51473920531E+01 0.58970417246E+01
 0.68141599017E+01 0.78726804927E+01 0.90191562158E+01 0.10174409650E+02 0.11178249627E+02
 0.11747366934E+02 0.11651807127E+02 0.11689779929E+02 0.11129300119E+02 0.10092900842E+02
 0.88723700771E+01 0.78397316130E+01 0.73271627270E+01 0.75097369472E+01 0.83400297163E+01
 0.95638405946E+01 0.10809901415E+02 0.11714834836E+02 0.12034690945E+02 0.11706839705E+02
 0.10848917098E+02 0.97026980233E+01 0.85037026473E+01 0.73590379122E+01 0.63365790392E+01
 0.54774397875E+01 0.47970175581E+01 0.42915361243E+01 0.39464826266E+01 0.37442193399E+01
 0.36696783215E+01 0.37140723995E+01 0.38767616063E+01 0.41651918008E+01 0.45926045409E+01
 0.51733000109E+01 0.59156904885E+01 0.68141599017E+01 0.78417927691E+01 0.89469278143E+01
 0.10056021614E+02 0.11034911666E+02 0.11642529460E+02 0.11477231574E+02 0.11685359226E+02
 0.11413411512E+02 0.10780442331E+02 0.10027400125E+02 0.94418478728E+01 0.92569818395E+01
 0.95638435712E+01 0.10274470029E+02 0.11152595961E+02 0.11898349673E+02 0.12251391377E+02
 0.12073449344E+02 0.11383884576E+02 0.10341191781E+02 0.91694501890E+01 0.80054981855E+01
 0.69248011561E+01 0.59805376909E+01 0.52009553736E+01 0.45927128520E+01 0.41477387768E+01
 0.38506474339E+01 0.36849471397E+01 0.36375151458E+01 0.37014338275E+01 0.38773088814E+01
 0.41728991876E+01 0.46006944798E+01 0.51733000109E+01 0.58970417246E+01 0.67648549899E+01
 0.77502728954E+01 0.88050196362E+01 0.98624933694E+01 0.10818416750E+02 0.10529402058E+02
 0.11239324629E+02 0.11605508990E+02 0.11607164301E+02 0.11341035007E+02 0.10991817742E+02
 0.10765623284E+02 0.10809901936E+02 0.11152596933E+02 0.11687419392E+02 0.12212124745E+02
 0.12503268558E+02 0.12396711319E+02 0.11843639078E+02 0.10923803492E+02 0.98119000927E+01
 0.86597579827E+01 0.75488649970E+01 0.65412084662E+01 0.56766138218E+01 0.49728215873E+01
 0.44301610385E+01 0.40380798352E+01 0.37813784824E+01 0.36451379211E+01 0.36181690961E+01
 0.36951509251E+01 0.38775249902E+01 0.41728991876E+01 0.45926045409E+01 0.51473920531E+01
 0.58417914017E+01 0.66681020962E+01 0.76015109551E+01 0.85984333571E+01 0.96000727439E+01
 0.92772793077E+01 0.10172209114E+02 0.10921117160E+02 0.11424129123E+02 0.11661612592E+02
 0.11702575110E+02 0.11675811499E+02 0.11714833742E+02 0.11898349261E+02 0.12212124107E+02
 0.12549734897E+02 0.12752393503E+02 0.12670902492E+02 0.12224355452E+02 0.11432992232E+02
 0.10413387386E+02 0.93062319589E+01 0.81963041499E+01 0.71511760592E+01 0.62204459912E+01
 0.54327407525E+01 0.47979205077E+01 0.43122440242E+01 0.39641905901E+01 0.37395324876E+01
 0.36251639660E+01 0.36117177968E+01 0.36951509251E+01 0.38773088814E+01 0.41651918008E+01
 0.45686380049E+01 0.50965238906E+01 0.57520007023E+01 0.65275485282E+01 0.74010197699E+01
 0.83344323780E+01 0.80222563098E+01 0.89043324013E+01 0.97568371689E+01 0.10523334005E+02
 0.11128510917E+02 0.11549084602E+02 0.11825115957E+02 0.12034691770E+02 0.12251391578E+02
 0.12503267659E+02 0.12752391902E+02 0.12905071500E+02 0.12848855943E+02 0.12500564718E+02
 0.11845163087E+02 0.10949416724E+02 0.99245697201E+01 0.88514194485E+01 0.77998346392E+01
 0.68270960167E+01 0.59720708442E+01 0.52547400437E+01 0.46796166246E+01 0.42408164989E+01
 0.39270279576E+01 0.37255408324E+01 0.36251639660E+01 0.36181690961E+01 0.37014338275E+01
 0.38767616063E+01 0.41501308072E+01 0.45296771144E+01 0.50225439741E+01 0.56310155926E+01
 0.63484920095E+01 0.71562160187E+01 0.68760980425E+01 0.76727467249E+01 0.84930206782E+01
 0.92994756502E+01 0.10057956248E+02 0.10723848690E+02 0.11268954649E+02 0.11706840804E+02
 0.12073451065E+02 0.12396712448E+02 0.12670901498E+02 0.12848853988E+02 0.12856753469E+02
 0.12625567286E+02 0.12125381148E+02 0.11387248837E+02 0.10486729676E+02 0.94920863807E+01
 0.84716272526E+01 0.74875913538E+01 0.65879202303E+01 0.58029261171E+01 0.51464896303E+01
 0.46199777706E+01 0.42168993637E+01 0.39270279576E+01 0.37395324876E+01 0.36451379211E+01
 0.36375151458E+01 0.37140723995E+01 0.38761390823E+01 0.41283546120E+01 0.44771104936E+01
 0.49281155145E+01 0.54833318969E+01 0.61376579547E+01 0.59028893133E+01 0.65708232315E+01
 0.72978949250E+01 0.80563765566E+01 0.88158057925E+01 0.95490776196E+01 0.10234708812E+02
 0.10848915661E+02 0.11383884701E+02 0.11843641022E+02 0.12224357044E+02 0.12500563860E+02
 0.12625565414E+02 0.12547206948E+02 0.12232402353E+02 0.11688731531E+02 0.10956861996E+02
 0.10087640568E+02 0.91430583064E+01 0.81864068665E+01 0.72724741712E+01 0.64414353461E+01
 0.57173241434E+01 0.51101727186E+01 0.46199777706E+01 0.42408164989E+01 0.39641905901E+01
 0.37813784824E+01 0.36849471397E+01 0.36696783215E+01 0.37331106009E+01 0.38757324456E+01
 0.41006792906E+01 0.44127410585E+01 0.48166032776E+01 0.53144048791E+01 0.51304039383E+01
 0.56527565220E+01 0.62512056242E+01 0.69103288248E+01 0.76082907592E+01 0.83205576967E+01
 0.90245655000E+01 0.97026967449E+01 0.10341189580E+02 0.10923802847E+02 0.11432993946E+02
 0.11845164721E+02 0.12125380515E+02 0.12232400834E+02 0.12133106977E+02 0.11817038120E+02
 0.11295036207E+02 0.10599646628E+02 0.97811433425E+01 0.88985909660E+01 0.80097616987E+01
 0.71628730540E+01 0.63921226741E+01 0.57173241434E+01 0.51464896303E+01 0.46796166246E+01
 0.43122440242E+01 0.40380798352E+01 0.38506474339E+01 0.37442193399E+01 0.37143704344E+01
 0.37584055871E+01 0.38757319140E+01 0.40680014872E+01 0.43387020239E+01 0.46919415885E+01
 0.45584847851E+01 0.49379181503E+01 0.53961120214E+01 0.59281730417E+01 0.65227644601E+01
 0.71630376138E+01 0.78295519739E+01 0.85037045619E+01 0.91694496510E+01 0.98118978455E+01
 0.10413386350E+02 0.10949417991E+02 0.11387250220E+02 0.11688731155E+02 0.11817037102E+02
 0.11745282737E+02 0.11464187290E+02 0.10986227764E+02 0.10344813794E+02 0.95886244138E+01
 0.87728405913E+01 0.79499720671E+01 0.71628730540E+01 0.64414353461E+01 0.58029261171E+01
 0.52547400437E+01 0.47979205077E+01 0.44301610385E+01 0.41477387768E+01 0.39464826266E+01
 0.38221892316E+01 0.37709204955E+01 0.37894831520E+01 0.38761378002E+01 0.40312519001E+01
 0.42573962854E+01 0.41714537900E+01 0.44208354175E+01 0.47436276210E+01 0.51416302877E+01
 0.56122366655E+01 0.61474581985E+01 0.67347060059E+01 0.73590397915E+01 0.80055005297E+01
 0.86597581146E+01 0.93062301710E+01 0.99245686555E+01 0.10486730427E+02 0.10956862978E+02
 0.11295036111E+02 0.11464186823E+02 0.11438289966E+02 0.11209176560E+02 0.10789736789E+02
 0.10212359101E+02 0.95230159065E+01 0.87728405913E+01 0.80097616987E+01 0.72724741712E+01
 0.65879202303E+01 0.59720708442E+01 0.54327407525E+01 0.49728215873E+01 0.45927128520E+01
 0.42915361243E+01 0.40674298190E+01 0.39175247407E+01 0.38381371631E+01 0.38254700802E+01
 0.38767603208E+01 0.39914127530E+01 0.39495777288E+01 0.40836835807E+01 0.42836461747E+01
 0.45539669890E+01 0.48973842025E+01 0.53130294779E+01 0.57957057256E+01 0.63365773413E+01
 0.69248022002E+01 0.75488670966E+01 0.81963047296E+01 0.88514183737E+01 0.94920855009E+01
 0.10087640799E+02 0.10599647190E+02 0.10986227950E+02 0.11209176577E+02 0.11241888183E+02
 0.11075669384E+02 0.10722361455E+02 0.10212359101E+02 0.95886244138E+01 0.88985909660E+01
 0.81864068665E+01 0.74875913538E+01 0.68270960167E+01 0.62204459912E+01 0.56766138218E+01
 0.52009553736E+01 0.47970175581E+01 0.44669748282E+01 0.42112573591E+01 0.40281921999E+01
 0.39142568608E+01 0.38651332543E+01 0.38773083382E+01 0.38775255579E+01 0.39070075545E+01
 0.39969923151E+01 0.41514004188E+01 0.43748165571E+01 0.46705072758E+01 0.50389613061E+01
 0.54774376946E+01 0.59805357773E+01 0.65412086573E+01 0.71511775054E+01 0.77998354646E+01
 0.84716269302E+01 0.91430576556E+01 0.97811431035E+01 0.10344814019E+02 0.10789737197E+02
 0.11075669687E+02 0.11174370721E+02 0.11075669384E+02 0.10789736789E+02 0.10344813794E+02
 0.97811433425E+01 0.91430583064E+01 0.84716272526E+01 0.77998346392E+01 0.71511760592E+01
 0.65412084662E+01 0.59805376909E+01 0.54774397875E+01 0.50389608288E+01 0.46705042066E+01
 0.43748139408E+01 0.41514009420E+01 0.39969954661E+01 0.39070103875E+01 0.39495811826E+01
 0.38773104593E+01 0.38651318293E+01 0.39142532334E+01 0.40281901030E+01 0.42112587106E+01
 0.44669777103E+01 0.47970188851E+01 0.52009544156E+01 0.56766122678E+01 0.62204454921E+01
 0.68270967090E+01 0.74875923158E+01 0.81864071816E+01 0.88985904834E+01 0.95886238345E+01
 0.10212359138E+02 0.10722361948E+02 0.11075669687E+02 0.11241888183E+02 0.11209176560E+02
 0.10986227764E+02 0.10599646628E+02 0.10087640568E+02 0.94920863807E+01 0.88514194485E+01
 0.81963041499E+01 0.75488649970E+01 0.69248011561E+01 0.63365790392E+01 0.57957085070E+01
 0.53130302584E+01 0.48973819969E+01 0.45539637256E+01 0.42836446726E+01 0.40836851959E+01
 0.41714532821E+01 0.39914157793E+01 0.38767637978E+01 0.38254702940E+01 0.38381341655E+01
 0.39175219835E+01 0.40674297839E+01 0.42915380253E+01 0.45927144989E+01 0.49728218086E+01
 0.54327398224E+01 0.59720698684E+01 0.65879202986E+01 0.72724752274E+01 0.80097624355E+01
 0.87728401885E+01 0.95230152014E+01 0.10212359138E+02 0.10789737197E+02 0.11209176577E+02
 0.11438289966E+02 0.11464187290E+02 0.11295036207E+02 0.10956861996E+02 0.10486729676E+02
 0.99245697201E+01 0.93062319589E+01 0.86597579827E+01 0.80054981855E+01 0.73590379122E+01
 0.67347067647E+01 0.61474608483E+01 0.56122387314E+01 0.51416298614E+01 0.47436246692E+01
 0.44208321416E+01 0.45584806313E+01 0.42573937939E+01 0.40312536198E+01 0.38761414316E+01
 0.37894846334E+01 0.37709188827E+01 0.38221867989E+01 0.39464815129E+01 0.41477393691E+01
 0.44301625853E+01 0.47979216711E+01 0.52547397095E+01 0.58029248564E+01 0.64414350281E+01
 0.71628741670E+01 0.79499729509E+01 0.87728401885E+01 0.95886238345E+01 0.10344814019E+02
 0.10986227950E+02 0.11464186823E+02 0.11745282737E+02 0.11817038120E+02 0.11688731531E+02
 0.11387248837E+02 0.10949416724E+02 0.10413387386E+02 0.98119000927E+01 0.91694501890E+01
 0.85037026473E+01 0.78295495862E+01 0.71630368681E+01 0.65227660019E+01 0.59281759113E+01
 0.53961137592E+01 0.49379164653E+01 0.51304040762E+01 0.46919377503E+01 0.43386983817E+01
 0.40680015467E+01 0.38757345421E+01 0.37584075693E+01 0.37143704211E+01 0.37442179393E+01
 0.38506457489E+01 0.40380792261E+01 0.43122452764E+01 0.46796183875E+01 0.51464896913E+01
 0.57173227518E+01 0.63921222283E+01 0.71628741670E+01 0.80097624355E+01 0.88985904834E+01
 0.97811431035E+01 0.10599647190E+02 0.11295036111E+02 0.11817037102E+02 0.12133106977E+02
 0.12232402353E+02 0.12125381148E+02 0.11845163087E+02 0.11432992232E+02 0.10923803492E+02
 0.10341191781E+02 0.97026980233E+01 0.90245647620E+01 0.83205554665E+01 0.76082884091E+01
 0.69103284760E+01 0.62512084216E+01 0.56527600770E+01 0.59028937118E+01 0.53144067293E+01
 0.48166007731E+01 0.44127374908E+01 0.41006779725E+01 0.38757333509E+01 0.37331122626E+01
 0.36696796534E+01 0.36849470276E+01 0.37813766713E+01 0.39641891408E+01 0.42408174801E+01
 0.46199798095E+01 0.51101729141E+01 0.57173227518E+01 0.64414350281E+01 0.72724752274E+01
 0.81864071816E+01 0.91430576556E+01 0.10087640799E+02 0.10956862978E+02 0.11688731155E+02
 0.12232400834E+02 0.12547206948E+02 0.12625567286E+02 0.12500564718E+02 0.12224355452E+02
 0.11843639078E+02 0.11383884576E+02 0.10848917098E+02 0.10234710582E+02 0.95490785997E+01
 0.88158045712E+01 0.80563730909E+01 0.72978924421E+01 0.65708250403E+01 0.68760983391E+01
 0.61376619493E+01 0.54833346786E+01 0.49281148322E+01 0.44771081884E+01 0.41283526393E+01
 0.38761381235E+01 0.37140731883E+01 0.36375173490E+01 0.36451389204E+01 0.37395307642E+01
 0.39270260956E+01 0.42169002386E+01 0.46199798095E+01 0.51464896913E+01 0.58029248564E+01
 0.65879202986E+01 0.74875923158E+01 0.84716269302E+01 0.94920855009E+01 0.10486730427E+02
 0.11387250220E+02 0.12125380515E+02 0.12625565414E+02 0.12856753469E+02 0.12848855943E+02
 0.12670902492E+02 0.12396711319E+02 0.12073449344E+02 0.11706839705E+02 0.11268954559E+02
 0.10723850366E+02 0.10057959032E+02 0.92994761404E+01 0.84930170192E+01 0.76727425950E+01
 0.80222516792E+01 0.71562149468E+01 0.63484945125E+01 0.56310181478E+01 0.50225450026E+01
 0.45296768313E+01 0.41501289438E+01 0.38767591116E+01 0.37014336461E+01 0.36181717261E+01
 0.36251655943E+01 0.37255391709E+01 0.39270260956E+01 0.42408174801E+01 0.46796183875E+01
 0.52547397095E+01 0.59720698684E+01 0.68270967090E+01 0.77998354646E+01 0.88514183737E+01
 0.99245686555E+01 0.10949417991E+02 0.11845164721E+02 0.12500563860E+02 0.12848853988E+02
 0.12905071500E+02 0.12752393503E+02 0.12503268558E+02 0.12251391377E+02 0.12034690945E+02
 0.11825114000E+02 0.11549082461E+02 0.11128511780E+02 0.10523338116E+02 0.97568395398E+01
 0.89043295362E+01 0.92772778958E+01 0.83344287185E+01 0.74010180844E+01 0.65275489301E+01
 0.57520019693E+01 0.50965261277E+01 0.45686398569E+01 0.41651904683E+01 0.38773054242E+01
 0.36951501225E+01 0.36117205451E+01 0.36251655943E+01 0.37395307642E+01 0.39641891408E+01
 0.43122452764E+01 0.47979216711E+01 0.54327398224E+01 0.62204454921E+01 0.71511775054E+01
 0.81963047296E+01 0.93062301710E+01 0.10413386350E+02 0.11432993946E+02 0.12224357044E+02
 0.12670901498E+02 0.12752391902E+02 0.12549734897E+02 0.12212124745E+02 0.11898349673E+02
 0.11714834836E+02 0.11675812263E+02 0.11702572733E+02 0.11661608431E+02 0.11424128692E+02
 0.10921121657E+02 0.10172212770E+02 0.10529405739E+02 0.96000729139E+01 0.85984319771E+01
 0.76015096331E+01 0.66681003670E+01 0.58417908705E+01 0.51473949326E+01 0.45926079897E+01
 0.41728983008E+01 0.38775212108E+01 0.36951501225E+01 0.36181717261E+01 0.36451389204E+01
 0.37813766713E+01 0.40380792261E+01 0.44301625853E+01 0.49728218086E+01 0.56766122678E+01
 0.65412086573E+01 0.75488670966E+01 0.86597581146E+01 0.98118978455E+01 0.10923802847E+02
 0.11843641022E+02 0.12396712448E+02 0.12503267659E+02 0.12212124107E+02 0.11687419392E+02
 0.11152595961E+02 0.10809901415E+02 0.10765625762E+02 0.10991820447E+02 0.11341032817E+02
 0.11607158888E+02 0.11605507346E+02 0.11239328376E+02 0.11477233581E+02 0.10818418985E+02
 0.98624947908E+01 0.88050212099E+01 0.77502726174E+01 0.67648515892E+01 0.58970396626E+01
 0.51733031274E+01 0.46006985170E+01 0.41728983008E+01 0.38773054242E+01 0.37014336461E+01
 0.36375173490E+01 0.36849470276E+01 0.38506457489E+01 0.41477393691E+01 0.45927144989E+01
 0.52009544156E+01 0.59805357773E+01 0.69248022002E+01 0.80055005297E+01 0.91694496510E+01
 0.10341189580E+02 0.11383884701E+02 0.12073451065E+02 0.12251391578E+02 0.11898349261E+02
 0.11152596933E+02 0.10274470029E+02 0.95638405946E+01 0.92569801265E+01 0.94418514045E+01
 0.10027404435E+02 0.10780440860E+02 0.11413406269E+02 0.11685357086E+02 0.11689778363E+02
 0.11642529174E+02 0.11034911410E+02 0.10056023769E+02 0.89469321118E+01 0.78417935592E+01
 0.68141555969E+01 0.59156878289E+01 0.51733031274E+01 0.45926079897E+01 0.41651904683E+01
 0.38767591116E+01 0.37140731883E+01 0.36696796534E+01 0.37442179393E+01 0.39464815129E+01
 0.42915380253E+01 0.47970188851E+01 0.54774376946E+01 0.63365773413E+01 0.73590397915E+01
 0.85037045619E+01 0.97026967449E+01 0.10848915661E+02 0.11706840804E+02 0.12034691770E+02
 0.11714833742E+02 0.10809901936E+02 0.95638435712E+01 0.83400297163E+01 0.75097321678E+01
 0.73271600015E+01 0.78397354419E+01 0.88723748689E+01 0.10092900352E+02 0.11129296722E+02
 0.10816027085E+02 0.11651807037E+02 0.11747364398E+02 0.11178246774E+02 0.10174412108E+02
 0.90191621388E+01 0.78726817275E+01 0.68141555969E+01 0.58970396626E+01 0.51473949326E+01
 0.45686398569E+01 0.41501289438E+01 0.38761381235E+01 0.37331122626E+01 0.37143704211E+01
 0.38221867989E+01 0.40674297839E+01 0.44669777103E+01 0.50389613061E+01 0.57957057256E+01
 0.67347060059E+01 0.78295519739E+01 0.90245655000E+01 0.10234708812E+02 0.11268954649E+02
 0.11825115957E+02 0.11675811499E+02 0.10765623284E+02 0.92569818395E+01 0.75097369472E+01
 0.59895326833E+01 0.51261632823E+01 0.51698392374E+01 0.61034995683E+01 0.76501109223E+01
 0.93716870552E+01 0.87170756724E+01 0.10536406570E+02 0.11604293168E+02 0.11804158454E+02
 0.11249430113E+02 0.10214232002E+02 0.90191621388E+01 0.78417935592E+01 0.67648515892E+01
 0.58417908705E+01 0.50965261277E+01 0.45296768313E+01 0.41283526393E+01 0.38757333509E+01
 0.37584075693E+01 0.37709188827E+01 0.39175219835E+01 0.42112587106E+01 0.46705072758E+01
 0.53130294779E+01 0.61474581985E+01 0.71630376138E+01 0.83205576967E+01 0.95490776196E+01
 0.10723848690E+02 0.11549084602E+02 0.11702575110E+02 0.10991817742E+02 0.94418478728E+01
 0.73271627270E+01 0.51261688866E+01 0.33973554041E+01 0.26085151442E+01 0.29799678711E+01
 0.44076101890E+01 0.65007037418E+01 0.55613091975E+01 0.82212108279E+01 0.10344346311E+02
 0.11573342284E+02 0.11821986913E+02 0.11249430113E+02 0.10174412108E+02 0.89469321118E+01
 0.77502726174E+01 0.66681003670E+01 0.57520019693E+01 0.50225450026E+01 0.44771081884E+01
 0.41006779725E+01 0.38757345421E+01 0.37894846334E+01 0.38381341655E+01 0.40281901030E+01
 0.43748165571E+01 0.48973842025E+01 0.56122366655E+01 0.65227644601E+01 0.76082907592E+01
 0.88158057925E+01 0.10057956248E+02 0.11128510917E+02 0.11661612592E+02 0.11341035007E+02
 0.10027400125E+02 0.78397316130E+01 0.51698422637E+01 0.26085199736E+01 0.78869956596E+00
 0.18936179106E+00 0.97402172662E+00 0.29338106687E+01 0.18463595051E+01 0.49466994599E+01
 0.79543247475E+01 0.10276076028E+02 0.11573342284E+02 0.11804158454E+02 0.11178246774E+02
 0.10056023769E+02 0.88050212099E+01 0.76015096331E+01 0.65275489301E+01 0.56310181478E+01
 0.49281148322E+01 0.44127374908E+01 0.40680015467E+01 0.38761414316E+01 0.38254702940E+01
 0.39142532334E+01 0.41514004188E+01 0.45539669890E+01 0.51416302877E+01 0.59281730417E+01
 0.69103288248E+01 0.80563765566E+01 0.92994756502E+01 0.10523334005E+02 0.11424129123E+02
 0.11607164301E+02 0.10780442331E+02 0.88723700771E+01 0.61034964594E+01 0.29799701342E+01
 0.18936414757E+00 -.15874534754E+01 -.18908206626E+01 -.63840948864E+00 -.16830091770E+01
 0.12693127843E+01 0.47329579789E+01 0.79543247475E+01 0.10344346311E+02 0.11604293168E+02
 0.11747364398E+02 0.11034911410E+02 0.98624947908E+01 0.85984319771E+01 0.74010180844E+01
 0.63484945125E+01 0.54833346786E+01 0.48166007731E+01 0.43386983817E+01 0.40312536198E+01
 0.38767637978E+01 0.38651318293E+01 0.39969923151E+01 0.42836461747E+01 0.47436276210E+01
 0.53961120214E+01 0.62512056242E+01 0.72978949250E+01 0.84930206782E+01 0.97568371689E+01
 0.10921117160E+02 0.11605508990E+02 0.11413411512E+02 0.10092900842E+02 0.76501072612E+01
 0.44076087568E+01 0.97402223268E+00 -.18908218704E+01 -.34905538412E+01 -.34155405464E+01
 -.42216629020E+01 -.20446159792E+01 0.12693127843E+01 0.49466994599E+01 0.82212108279E+01
 0.10536406570E+02 0.11651807037E+02 0.11642529174E+02 0.10818418985E+02 0.96000729139E+01
 0.83344287185E+01 0.71562149468E+01 0.61376619493E+01 0.53144067293E+01 0.46919377503E+01
 0.42573937939E+01 0.39914157793E+01 0.38773104593E+01 0.39070075545E+01 0.40836835807E+01
 0.44208354175E+01 0.49379181503E+01 0.56527565220E+01 0.65708232315E+01 0.76727467249E+01
 0.89043324013E+01 0.10172209114E+02 0.11239324629E+02 0.11685359226E+02 0.11129300119E+02
 0.93716866191E+01 0.65007026837E+01 0.29338114470E+01 -.63841118565E+00 -.34155452478E+01
 -.47207757870E+01 -.42216966636E+01 -.35288977899E+01 -.12673741739E+01 0.20034044974E+01
 0.55259304031E+01 0.85748787034E+01 0.10644266916E+02 0.11539211329E+02 0.11366748674E+02
 0.10451436157E+02 0.92104537825E+01 0.79542680004E+01 0.67995428825E+01 0.58126530810E+01
 0.50237505741E+01 0.44342400399E+01 0.40289934083E+01 0.37880233450E+01 0.36951519623E+01
 0.37434044243E+01 0.39371480719E+01 0.42908093942E+01 0.48242357246E+01 0.55548212176E+01
 0.64865070662E+01 0.75972726137E+01 0.88297567448E+01 0.10085966039E+02 0.11110623394E+02
 0.11487145547E+02 0.10856615690E+02 0.90526353551E+01 0.61984879554E+01 0.27359546053E+01
 -.64380970668E+00 -.31702538198E+01 -.35289039296E+01 -.42217087604E+01 -.31702644618E+01
 -.64381248869E+00 0.27359489766E+01 0.61984700788E+01 0.90526213776E+01 0.10856625027E+02
 0.11487166014E+02 0.11110629558E+02 0.10085960587E+02 0.88297601664E+01 0.75972831012E+01
 0.64865068570E+01 0.55548135903E+01 0.48242385469E+01 0.42908189326E+01 0.39371459026E+01
 0.37433942343E+01 0.36951531020E+01 0.37880333037E+01 0.40289929541E+01 0.44342306194E+01
 0.50237502906E+01 0.58126599997E+01 0.67995388449E+01 0.79542552056E+01 0.92104508540E+01
 0.10451440376E+02 0.11366739052E+02 0.11539189065E+02 0.10644257325E+02 0.85748908033E+01
 0.55259462562E+01 0.20034102084E+01 -.12673755960E+01 -.12042179551E+01 -.31028214876E+01
 -.34155866114E+01 -.20662622648E+01 0.59625394822E+00 0.39168065699E+01 0.71456333871E+01
 0.96548721633E+01 0.11085108841E+02 0.11390385011E+02 0.10791638717E+02 0.96699871752E+01
 0.84161721926E+01 0.72193753956E+01 0.61632776616E+01 0.52947722545E+01 0.46275684091E+01
 0.41529059783E+01 0.38518688354E+01 0.37054549626E+01 0.37014363817E+01 0.38380938985E+01
 0.41247135147E+01 0.45787399340E+01 0.52196683628E+01 0.60596980473E+01 0.70918504080E+01
 0.82786518175E+01 0.95467529572E+01 0.10758162196E+02 0.11568119197E+02 0.11576577420E+02
 0.10501985767E+02 0.82965958276E+01 0.52155518170E+01 0.18059602147E+01 0.21678549928E+01
 -.46114615396E+00 -.19387005100E+01 -.18908562397E+01 -.33722697338E+00 0.23148319830E+01
 0.54084644323E+01 0.82467764742E+01 0.10289034439E+02 0.11269851922E+02 0.11220425890E+02
 0.10406821710E+02 0.92170710493E+01 0.79819249143E+01 0.68325853441E+01 0.58403597076E+01
 0.50408653894E+01 0.44398710937E+01 0.40246980014E+01 0.37757671864E+01 0.36754894195E+01
 0.37140745980E+01 0.38923679806E+01 0.42215807584E+01 0.47198303838E+01 0.54054934700E+01
 0.62874398321E+01 0.73533225918E+01 0.85595540825E+01 0.98280798120E+01 0.11001525287E+02
 0.11723890635E+02 0.11624172713E+02 0.10468438998E+02 0.82635652575E+01 0.53092529936E+01
 0.57978443567E+01 0.30479959705E+01 0.87943786299E+00 -.16266314782E+00 0.18934250860E+00
 0.18318332023E+01 0.43250707459E+01 0.70419852649E+01 0.93657715036E+01 0.10859423624E+02
 0.11355954945E+02 0.10957608338E+02 0.99620921070E+01 0.87426235535E+01 0.75397953383E+01
 0.64489146897E+01 0.55277936120E+01 0.48008108174E+01 0.42667191941E+01 0.39099997307E+01
 0.37112347442E+01 0.36547004551E+01 0.37331115023E+01 0.39496075307E+01 0.43168388189E+01
 0.48530249704E+01 0.55749080393E+01 0.64878364076E+01 0.75746386186E+01 0.87871629450E+01
 0.10044880557E+02 0.11178591866E+02 0.11840436113E+02 0.11696274399E+02 0.10560452593E+02
 0.84857759922E+01 0.89362166656E+01 0.66227886864E+01 0.43461648782E+01 0.26712024802E+01
 0.20370889350E+01 0.26085118866E+01 0.42165697527E+01 0.64171369149E+01 0.86408849352E+01
 0.10371032145E+02 0.11282554946E+02 0.11303937908E+02 0.10596997087E+02 0.94744440380E+01
 0.82596915895E+01 0.71028243728E+01 0.60798854204E+01 0.52347491995E+01 0.45814032118E+01
 0.41129093362E+01 0.38120525358E+01 0.36602916669E+01 0.36440402809E+01 0.37584043665E+01
 0.40084327639E+01 0.44076963972E+01 0.49739797362E+01 0.57219900305E+01 0.66535961475E+01
 0.77476404132E+01 0.89531395761E+01 0.10189351341E+02 0.11286451809E+02 0.11918835604E+02
 0.11793602848E+02 0.10770387574E+02 0.11067461886E+02 0.95551827680E+01 0.76848670342E+01
 0.59171666295E+01 0.47240149172E+01 0.44358736070E+01 0.51261711903E+01 0.65837935458E+01
 0.83869164418E+01 0.10045685386E+02 0.11154641920E+02 0.11500578347E+02 0.11097832321E+02
 0.10151875217E+02 0.89698288225E+01 0.77820818616E+01 0.66839189637E+01 0.57361100087E+01
 0.49692034948E+01 0.43883024462E+01 0.39823096459E+01 0.37333913805E+01 0.36244237219E+01
 0.36440391152E+01 0.37894797551E+01 0.40672564736E+01 0.44913418680E+01 0.50785953439E+01
 0.58414186047E+01 0.67784674181E+01 0.78656574462E+01 0.90509671707E+01 0.10255813207E+02
 0.11321331774E+02 0.11953906046E+02 0.11902972589E+02 0.11999567283E+02 0.11402701873E+02
 0.10259196834E+02 0.88582575463E+01 0.75907873075E+01 0.68296099848E+01 0.68025512088E+01
 0.75097448152E+01 0.87221801139E+01 0.10062823251E+02 0.11135148239E+02 0.11647478423E+02
 0.11490541252E+02 0.10749267430E+02 0.96537088369E+01 0.84679333102E+01 0.73242714044E+01
 0.62953564627E+01 0.54269277021E+01 0.47377453595E+01 0.42259412626E+01 0.38777961194E+01
 0.36757640004E+01 0.36044752949E+01 0.36546979707E+01 0.38254656181E+01 0.41242802814E+01
 0.45650088292E+01 0.51631526070E+01 0.59286799860E+01 0.68575049442E+01 0.79238196435E+01
 0.90763168337E+01 0.10240696524E+02 0.11278647391E+02 0.11934934221E+02 0.11847915738E+02
 0.12051381727E+02 0.11716705575E+02 0.10953219647E+02 0.10008026826E+02 0.91946986479E+01
 0.87889768686E+01 0.89292970331E+01 0.95638528436E+01 0.10468264118E+02 0.11326544020E+02
 0.11840974852E+02 0.11827972931E+02 0.11267814306E+02 0.10296532931E+02 0.91447228909E+01
 0.79854097601E+01 0.69007070739E+01 0.59482702737E+01 0.51601606294E+01 0.45455244067E+01
 0.40975540772E+01 0.38012838314E+01 0.36401341563E+01 0.36006346570E+01 0.36754879713E+01
 0.38651296568E+01 0.41775755572E+01 0.46260954861E+01 0.52244746045E+01 0.59802784519E+01
 0.68873257769E+01 0.79193517672E+01 0.90273843097E+01 0.10142929158E+02 0.11153972257E+02
 0.10944712749E+02 0.11678900870E+02 0.12025148842E+02 0.11949119983E+02 0.11544478539E+02
 0.11008604434E+02 0.10577010735E+02 0.10437361611E+02 0.10656577658E+02 0.11152605386E+02