    2    2   15    1
  0.1529437E+02  0.3691622E-09  0.3691622E-09  0.3691622E-09  0.5000000E-15
  1.000000000000000E-004
  CAR 
 unknown system                          
      8      3      8
 
  0.2500000E+00  0.2500000E+00  0.2500000E+00  0.2500000E+00
    1        3.372160   1.000000
    2        3.372160   1.000000
    3        4.023944   1.000000
    4        4.023944   1.000000
    5       13.177549   0.000000
    6       13.177551   0.000000
    7       14.995640   0.000000
    8       14.995647   0.000000
 
 -0.2500000E+00  0.2500000E+00  0.2500000E+00  0.5000000E+00
    1       -3.166405   1.000000
    2        1.887152   1.000000
    3        3.614296   1.000000
    4        8.511889   0.500000
    5       12.842203   0.000000
    6       16.011524   0.000000
    7       17.203884   0.000000
    8       18.232726   0.000000
 
 -0.2500000E+00 -0.2500000E+00  0.2500000E+00  0.2500000E+00
    1        0.825231   1.000000
    2        5.729105   1.000000
    3        5.821804   1.000000
    4        7.248439   1.000000
    5        7.248439   1.000000
    6       11.523468   0.000000
    7       12.226785   0.000000
    8       12.226790   0.000000
