    2    2   15    1
  0.1529437E+02  0.3691622E-09  0.3691622E-09  0.3691622E-09  0.5000000E-15
  1.000000000000000E-004
  CAR 
 unknown system                          
      8      3      8
 
  0.2500000E+00  0.2500000E+00  0.2500000E+00  0.2500000E+00
    1        3.372468   1.000000
    2        3.372468   1.000000
    3        4.024096   1.000000
    4        4.024097   1.000000
    5       13.177832   0.000000
    6       13.177834   0.000000
    7       14.995890   0.000000
    8       14.995894   0.000000
 
 -0.2500000E+00  0.2500000E+00  0.2500000E+00  0.5000000E+00
    1       -3.166175   1.000000
    2        1.887337   1.000000
    3        3.614588   1.000000
    4        8.512146   0.500000
    5       12.842401   0.000000
    6       16.011848   0.000000
    7       17.204093   0.000000
    8       18.231992   0.000000
 
 -0.2500000E+00 -0.2500000E+00  0.2500000E+00  0.2500000E+00
    1        0.825481   1.000000
    2        5.729280   1.000000
    3        5.821969   1.000000
    4        7.248754   1.000000
    5        7.248754   1.000000
    6       11.523662   0.000000
    7       12.227016   0.000000
    8       12.227021   0.000000
