       N       E                     dE             d eps       ncg     rms          rms(c)
DAV:   1    -0.210704251329E+01   -0.21070E+01   -0.26061E+03    48   0.552E+02
DAV:   2    -0.119759877576E+02   -0.98689E+01   -0.98680E+01    72   0.602E+01
DAV:   3    -0.120550140259E+02   -0.79026E-01   -0.79026E-01    64   0.651E+00
DAV:   4    -0.120552728862E+02   -0.25886E-03   -0.25886E-03    72   0.375E-01
DAV:   5    -0.120552729078E+02   -0.21649E-07   -0.21100E-07    56   0.422E-03    0.139E+00
DAV:   6    -0.120442208116E+02    0.11052E-01   -0.44760E-03    64   0.429E-01    0.866E-01
DAV:   7    -0.120370449678E+02    0.71758E-02   -0.10878E-02    80   0.682E-01    0.437E-02
DAV:   8    -0.120370036281E+02    0.41340E-04   -0.12522E-04    56   0.803E-02
   1 F= -.12037004E+02 E0= -.12008794E+02  d E =-.120370E+02
