 vasp.5.4.4.18Apr17-6-g9f103f2a35 (build Dec 09 2018 21:25:21) complex          
  
 executed on IFC18.0.1.163_CrayMP date 2019.03.20  09:35:30
 running on    8 total cores
 distrk:  each k-point on    8 cores,    1 groups
 distr:  one band on NCORES_PER_BAND=   1 cores,    8 groups


--------------------------------------------------------------------------------------------------------


 INCAR:
 POTCAR:   PAW_PBE Si 05Jan2001                   

 ----------------------------------------------------------------------------- 
|                                                                             |
|           W    W    AA    RRRRR   N    N  II  N    N   GGGG   !!!           |
|           W    W   A  A   R    R  NN   N  II  NN   N  G    G  !!!           |
|           W    W  A    A  R    R  N N  N  II  N N  N  G       !!!           |
|           W WW W  AAAAAA  RRRRR   N  N N  II  N  N N  G  GGG   !            |
|           WW  WW  A    A  R   R   N   NN  II  N   NN  G    G                |
|           W    W  A    A  R    R  N    N  II  N    N   GGGG   !!!           |
|                                                                             |
|      For optimal performance we recommend to set                            |
|        NCORE= 4 - approx SQRT( number of cores)                             |
|      NCORE specifies how many cores store one orbital (NPAR=cpu/NCORE).     |
|      This setting can  greatly improve the performance of VASP for DFT.     |
|      The default,   NCORE=1            might be grossly inefficient         |
|      on modern multi-core architectures or massively parallel machines.     |
|      Do your own testing !!!!                                               |
|      Unfortunately you need to use the default for GW and RPA calculations. |
|      (for HF NCORE is supported but not extensively tested yet)             |
|                                                                             |
 ----------------------------------------------------------------------------- 

 POTCAR:   PAW_PBE Si 05Jan2001                   
   VRHFIN =Si: s2p2                                                             
   LEXCH  = PE                                                                  
   EATOM  =   103.0669 eV,    7.5752 Ry                                         
                                                                                
   TITEL  = PAW_PBE Si 05Jan2001                                                
   LULTRA =        F    use ultrasoft PP ?                                      
   IUNSCR =        1    unscreen: 0-lin 1-nonlin 2-no                           
   RPACOR =    1.500    partial core radius                                     
   POMASS =   28.085; ZVAL   =    4.000    mass and valenz                      
   RCORE  =    1.900    outmost cutoff radius                                   
   RWIGS  =    2.480; RWIGS  =    1.312    wigner-seitz radius (au A)           
   ENMAX  =  245.345; ENMIN  =  184.009 eV                                      
   ICORE  =        2    local potential                                         
   LCOR   =        T    correct aug charges                                     
   LPAW   =        T    paw PP                                                  
   EAUG   =  322.069                                                            
   DEXC   =    -.007                                                            
   RMAX   =    2.944    core radius for proj-oper                               
   RAUG   =    1.300    factor for augmentation sphere                          
   RDEP   =    1.993    radius for radial grids                                 
   QCUT   =   -4.246; QGAM   =    8.493    optimization parameters              
                                                                                
   Description                                                                  
     l     E      TYP  RCUT    TYP  RCUT                                        
     0   .000     23  1.900                                                     
     0   .000     23  1.900                                                     
     1   .000     23  1.900                                                     
     1   .000     23  1.900                                                     
     2   .000      7  1.900                                                     
  local pseudopotential read in
  partial core-charges read in
  atomic valenz-charges read in
  non local Contribution for L=           0  read in
    real space projection operators read in
  non local Contribution for L=           0  read in
    real space projection operators read in
  non local Contribution for L=           1  read in
    real space projection operators read in
  non local Contribution for L=           1  read in
    real space projection operators read in
    PAW grid and wavefunctions read in
 
   number of l-projection  operators is LMAX  =           4
   number of lm-projection operators is LMMAX =           8
 
 PAW_PBE Si 05Jan2001                   :
 energy of atom  1       EATOM= -103.0669
 kinetic energy error for atom=    0.0013 (will be added to EATOM!!)
 
 
 POSCAR: Si2                                     
  positions in direct lattice
  No initial velocities read in
 exchange correlation table for  LEXCH =        8
   RHO(1)=    0.500       N(1)  =     2000
   RHO(2)=  100.500       N(2)  =     4000
 


--------------------------------------------------------------------------------------------------------


 ion  position               nearest neighbor table
   1  0.250  0.750  0.500-   2 2.53   2 2.53   2 2.53   2 2.53   2 3.11   2 3.11   2 3.11   2 3.11

   2  0.000  0.000  0.000-   1 2.53   1 2.53   1 2.53   1 2.53   1 3.11   1 3.11   1 3.11   1 3.11

 
  LATTYP: Found a body centered tetragonal cell.
 ALAT       =     4.9000000000
 C/A-ratio  =     0.5200000000
  
  Lattice vectors:
  
 A1 = (  -2.4500000000,   2.4500000000,   1.2740000000)
 A2 = (   2.4500000000,  -2.4500000000,   1.2740000000)
 A3 = (   2.4500000000,   2.4500000000,  -1.2740000000)


Analysis of symmetry for initial positions (statically):
=====================================================================
 Subroutine PRICEL returns:
 Original cell was already a primitive cell.
 

 Routine SETGRP: Setting up the symmetry group for a 
 body centered tetragonal supercell.


 Subroutine GETGRP returns: Found 16 space group operations
 (whereof  8 operations were pure point group operations)
 out of a pool of 16 trial point group operations.


The static configuration has the point symmetry D_2d.
 The point group associated with its full space group is D_4h.


Analysis of symmetry for dynamics (positions and initial velocities):
=====================================================================
 Subroutine PRICEL returns:
 Original cell was already a primitive cell.
 

 Routine SETGRP: Setting up the symmetry group for a 
 body centered tetragonal supercell.


 Subroutine GETGRP returns: Found 16 space group operations
 (whereof  8 operations were pure point group operations)
 out of a pool of 16 trial point group operations.


The dynamic configuration has the point symmetry D_2d.
 The point group associated with its full space group is D_4h.


 Subroutine INISYM returns: Found 16 space group operations
 (whereof  8 operations are pure point group operations),
 and found     1 'primitive' translations

 
 
 KPOINTS: Automatic kpoint scheme                 

Automatic generation of k-mesh.
Space group operators:
 irot       det(A)        alpha          n_x          n_y          n_z        tau_x        tau_y        tau_z
    1     1.000000     0.000000     1.000000     0.000000     0.000000     0.000000     0.000000     0.000000
    2    -1.000000    90.000000    -0.000000    -0.000000    -1.000000     0.000000     0.000000     0.000000
    3     1.000000   180.000000    -0.000000    -0.000000    -1.000000     0.000000     0.000000     0.000000
    4    -1.000000    90.000000    -0.000000     0.000000     1.000000     0.000000     0.000000     0.000000
    5    -1.000000   180.000000     0.000000    -1.000000     0.000000     0.000000     0.000000     0.000000
    6     1.000000   180.000000     0.707107     0.707107    -0.000000     0.000000     0.000000     0.000000
    7    -1.000000   180.000000     1.000000     0.000000     0.000000     0.000000     0.000000     0.000000
    8     1.000000   180.000000     0.707107    -0.707107     0.000000     0.000000     0.000000     0.000000
    9    -1.000000     0.000000     1.000000     0.000000     0.000000     0.250000     0.750000     0.500000
   10     1.000000    90.000000    -0.000000    -0.000000    -1.000000     0.250000     0.750000     0.500000
   11    -1.000000   180.000000    -0.000000    -0.000000    -1.000000     0.250000     0.750000     0.500000
   12     1.000000    90.000000    -0.000000     0.000000     1.000000     0.250000     0.750000     0.500000
   13     1.000000   180.000000     0.000000    -1.000000     0.000000     0.250000     0.750000     0.500000
   14    -1.000000   180.000000     0.707107     0.707107    -0.000000     0.250000     0.750000     0.500000
   15     1.000000   180.000000     1.000000     0.000000     0.000000     0.250000     0.750000     0.500000
   16    -1.000000   180.000000     0.707107    -0.707107     0.000000     0.250000     0.750000     0.500000
 
 Subroutine IBZKPT returns following result:
 ===========================================
 
 Found      3 irreducible k-points:
 
 Following reciprocal coordinates:
            Coordinates               Weight
  0.250000  0.250000  0.250000     32.000000
 -0.250000  0.250000  0.250000     64.000000
 -0.250000 -0.250000  0.250000     32.000000
 
 Following cartesian coordinates:
            Coordinates               Weight
  0.102041  0.102041  0.196232     32.000000
  0.102041  0.000000  0.000000     64.000000
 -0.000000  0.000000 -0.196232     32.000000
 


--------------------------------------------------------------------------------------------------------




 Dimension of arrays:
   k-points           NKPTS =      3   k-points in BZ     NKDIM =      3   number of bands    NBANDS=      8
   number of dos      NEDOS =    301   number of ions     NIONS =      2
   non local maximal  LDIM  =      4   non local SUM 2l+1 LMDIM =      8
   total plane-waves  NPLWV =   5832
   max r-space proj   IRMAX =      1   max aug-charges    IRDMAX=   6573
   dimension x,y,z NGX =    18 NGY =   18 NGZ =   18
   dimension x,y,z NGXF=    36 NGYF=   36 NGZF=   36
   support grid    NGXF=    36 NGYF=   36 NGZF=   36
   ions per type =               2
   NGX,Y,Z   is equivalent  to a cutoff of   8.11,  8.11,  8.11 a.u.
   NGXF,Y,Z  is equivalent  to a cutoff of  16.21, 16.21, 16.21 a.u.

 SYSTEM =  unknown system                          
 POSCAR =  Si2                                     

 Startparameter for this run:
   NWRITE =      2    write-flag & timer
   PREC   = normal    normal or accurate (medium, high low for compatibility)
   ISTART =      0    job   : 0-new  1-cont  2-samecut
   ICHARG =      2    charge: 1-file 2-atom 10-const
   ISPIN  =      1    spin polarized calculation?
   LNONCOLLINEAR =      F non collinear calculations
   LSORBIT =      F    spin-orbit coupling
   INIWAV =      1    electr: 0-lowe 1-rand  2-diag
   LASPH  =      F    aspherical Exc in radial PAW
   METAGGA=      F    non-selfconsistent MetaGGA calc.

 Electronic Relaxation 1
   ENCUT  =  350.0 eV  25.72 Ry    5.07 a.u.   5.63  5.63  5.63*2*pi/ulx,y,z
   ENINI  =  350.0     initial cutoff
   ENAUG  =  322.1 eV  augmentation charge cutoff
   NELM   =     60;   NELMIN=  2; NELMDL= -5     # of ELM steps 
   EDIFF  = 0.4E-03   stopping-criterion for ELM
   LREAL  =      F    real-space projection
   NLSPLINE    = F    spline interpolate recip. space projectors
   LCOMPAT=      F    compatible to vasp.4.4
   GGA_COMPAT  = T    GGA compatible to vasp.4.4-vasp.4.6
   LMAXPAW     = -100 max onsite density
   LMAXMIX     =    2 max onsite mixed and CHGCAR
   VOSKOWN=      0    Vosko Wilk Nusair interpolation
   ROPT   =    0.00000
 Ionic relaxation
   EDIFFG = -.1E-01   stopping-criterion for IOM
   NSW    =     15    number of steps for IOM
   NBLOCK =      1;   KBLOCK =     15    inner block; outer block 
   IBRION =      2    ionic relax: 0-MD 1-quasi-New 2-CG
   NFREE  =      1    steps in history (QN), initial steepest desc. (CG)
   ISIF   =      3    stress and relaxation
   IWAVPR =     11    prediction:  0-non 1-charg 2-wave 3-comb
   ISYM   =      2    0-nonsym 1-usesym 2-fastsym
   LCORR  =      T    Harris-Foulkes like correction to forces

   POTIM  = 0.5000    time-step for ionic-motion
   TEIN   =    0.0    initial temperature
   TEBEG  =    0.0;   TEEND  =   0.0 temperature during run
   SMASS  =  -3.00    Nose mass-parameter (am)
   estimated Nose-frequenzy (Omega)   =  0.10E-29 period in steps =****** mass=  -0.311E-27a.u.
   SCALEE = 1.0000    scale energy and forces
   NPACO  =    256;   APACO  = 16.0  distance and # of slots for P.C.
   PSTRESS=    0.0 pullay stress

  Mass of Ions in am
   POMASS =  28.09
  Ionic Valenz
   ZVAL   =   4.00
  Atomic Wigner-Seitz radii
   RWIGS  =  -1.00
  virtual crystal weights 
   VCA    =   1.00
   NELECT =       8.0000    total number of electrons
   NUPDOWN=      -1.0000    fix difference up-down

 DOS related values:
   EMIN   =  10.00;   EMAX   =-10.00  energy-range for DOS
   EFERMI =   0.00
   ISMEAR =     0;   SIGMA  =   0.20  broadening in eV -4-tet -1-fermi 0-gaus

 Electronic relaxation 2 (details)
   IALGO  =     38    algorithm
   LDIAG  =      T    sub-space diagonalisation (order eigenvalues)
   LSUBROT=      F    optimize rotation matrix (better conditioning)
   TURBO    =      0    0=normal 1=particle mesh
   IRESTART =      0    0=no restart 2=restart with 2 vectors
   NREBOOT  =      0    no. of reboots
   NMIN     =      0    reboot dimension
   EREF     =   0.00    reference energy to select bands
   IMIX   =      4    mixing-type and parameters
     AMIX     =   0.40;   BMIX     =  1.00
     AMIX_MAG =   1.60;   BMIX_MAG =  1.00
     AMIN     =   0.10
     WC   =   100.;   INIMIX=   1;  MIXPRE=   1;  MAXMIX= -45

 Intra band minimization:
   WEIMIN = 0.0010     energy-eigenvalue tresh-hold
   EBREAK =  0.13E-04  absolut break condition
   DEPER  =   0.30     relativ break condition  

   TIME   =   0.40     timestep for ELM

  volume/ion in A,a.u.               =      15.29       103.21
  Fermi-wavevector in a.u.,A,eV,Ry     =   1.046930  1.978411 14.912834  1.096062
  Thomas-Fermi vector in A             =   2.181789
 
 Write flags
   LWAVE        =      T    write WAVECAR
   LDOWNSAMPLE  =      F    k-point downsampling of WAVECAR
   LCHARG       =      T    write CHGCAR
   LVTOT        =      F    write LOCPOT, total local potential
   LVHAR        =      F    write LOCPOT, Hartree potential only
   LELF         =      F    write electronic localiz. function (ELF)
   LORBIT       =      0    0 simple, 1 ext, 2 COOP (PROOUT), +10 PAW based schemes


 Dipole corrections
   LMONO  =      F    monopole corrections only (constant potential shift)
   LDIPOL =      F    correct potential (dipole corrections)
   IDIPOL =      0    1-x, 2-y, 3-z, 4-all directions 
   EPSILON=  1.0000000 bulk dielectric constant

 Exchange correlation treatment:
   GGA     =    --    GGA type
   LEXCH   =     8    internal setting for exchange type
   VOSKOWN=      0    Vosko Wilk Nusair interpolation
   LHFCALC =     F    Hartree Fock is set to
   LHFONE  =     F    Hartree Fock one center treatment
   AEXX    =    0.0000 exact exchange contribution

 Linear response parameters
   LEPSILON=     F    determine dielectric tensor
   LRPA    =     F    only Hartree local field effects (RPA)
   LNABLA  =     F    use nabla operator in PAW spheres
   LVEL    =     F    velocity operator in full k-point grid
   LINTERFAST=   F  fast interpolation
   KINTER  =     0    interpolate to denser k-point grid
   CSHIFT  =0.1000    complex shift for real part using Kramers Kronig
   OMEGAMAX=  -1.0    maximum frequency
   DEG_THRESHOLD= 0.2000000E-02 threshold for treating states as degnerate
   RTIME   =   -0.100 relaxation time in fs
  (WPLASMAI=    0.000 imaginary part of plasma frequency in eV, 0.658/RTIME)
   DFIELD  = 0.0000000 0.0000000 0.0000000 field for delta impulse in time
 
 Orbital magnetization related:
   ORBITALMAG=     F  switch on orbital magnetization
   LCHIMAG   =     F  perturbation theory with respect to B field
   DQ        =  0.001000  dq finite difference perturbation B field
   LLRAUG    =     F  two centre corrections for induced B field



--------------------------------------------------------------------------------------------------------


 conjugate gradient relaxation of ions
 charge density and potential will be updated during run
 non-spin polarized calculation
 Variant of blocked Davidson
 Davidson routine will perform the subspace rotation
 perform sub-space diagonalisation
    after iterative eigenvector-optimisation
 modified Broyden-mixing scheme, WC =      100.0
 initial mixing is a Kerker type mixing with AMIX =  0.4000 and BMIX =      1.0000
 Hartree-type preconditioning will be used
 using additional bands            4
 reciprocal scheme for non local part
 use partial core corrections
 calculate Harris-corrections to forces 
   (improved forces if not selfconsistent)
 use gradient corrections 
 use of overlap-Matrix (Vanderbilt PP)
 Gauss-broadening in eV      SIGMA  =   0.20


--------------------------------------------------------------------------------------------------------


  energy-cutoff  :      350.00
  volume of cell :       30.59
      direct lattice vectors                 reciprocal lattice vectors
    -2.450000000  2.450000000  1.274000000     0.000000000  0.204081633  0.392464678
     2.450000000 -2.450000000  1.274000000     0.204081633  0.000000000  0.392464678
     2.450000000  2.450000000 -1.274000000     0.204081633  0.204081633 -0.000000000

  length of vectors
     3.691622408  3.691622408  3.691622408     0.442354876  0.442354876  0.288615013


 
 k-points in units of 2pi/SCALE and weight: Automatic kpoint scheme                 
   0.10204082  0.10204082  0.19623234       0.250
   0.10204082  0.00000000 -0.00000000       0.500
   0.00000000  0.00000000 -0.19623234       0.250
 
 k-points in reciprocal lattice and weights: Automatic kpoint scheme                 
   0.25000000  0.25000000  0.25000000       0.250
  -0.25000000  0.25000000  0.25000000       0.500
  -0.25000000 -0.25000000  0.25000000       0.250
 
 position of ions in fractional coordinates (direct lattice) 
   0.25000000  0.75000000  0.50000000
   0.00000000  0.00000000  0.00000000
 
 position of ions in cartesian coordinates  (Angst):
   2.45000000  0.00000000  0.63700000
   0.00000000  0.00000000  0.00000000
 


--------------------------------------------------------------------------------------------------------


 k-point  1 :   0.2500 0.2500 0.2500  plane waves:     464
 k-point  2 :  -0.2500 0.2500 0.2500  plane waves:     455
 k-point  3 :  -0.2500-0.2500 0.2500  plane waves:     460

 maximum and minimum number of plane-waves per node :       464      455

 maximum number of plane-waves:       464
 maximum index in each direction: 
   IXMAX=    5   IYMAX=    5   IZMAX=    5
   IXMIN=   -5   IYMIN=   -5   IZMIN=   -5


 serial   3D FFT for wavefunctions
 parallel 3D FFT for charge:
    minimum data exchange during FFTs selected (reduces bandwidth)


 total amount of memory used by VASP MPI-rank0    30940. kBytes
=======================================================================

   base      :      30000. kBytes
   nonl-proj :        103. kBytes
   fftplans  :        247. kBytes
   grid      :        561. kBytes
   one-center:          6. kBytes
   wavefun   :         23. kBytes
 
     INWAV:  cpu time    0.0000: real time    0.0006
 Broyden mixing: mesh for mixing (old mesh)
   NGX = 11   NGY = 11   NGZ = 11
  (NGX  = 36   NGY  = 36   NGZ  = 36)
  gives a total of   1331 points

 initial charge density was supplied:
 charge density of overlapping atoms calculated
 number of electron       8.0000000 magnetization 
 keeping initial charge density in first step


--------------------------------------------------------------------------------------------------------


 Maximum index for augmentation-charges          911 (set IRDMAX)


--------------------------------------------------------------------------------------------------------


 First call to EWALD:  gamma=   0.567
 Maximum number of real-space cells 4x 4x 3
 Maximum number of reciprocal cells 3x 3x 3

    FEWALD:  cpu time    0.0040: real time    0.0056


--------------------------------------- Iteration      1(   1)  ---------------------------------------


    POTLOK:  cpu time    0.0320: real time    0.0514
    SETDIJ:  cpu time    0.0120: real time    0.0093
     EDDAV:  cpu time    0.0320: real time    0.0405
       DOS:  cpu time    0.0000: real time    0.0014
    --------------------------------------------
      LOOP:  cpu time    0.0760: real time    0.1031

 eigenvalue-minimisations  :    48
 total energy-change (2. order) :-0.2107043E+01  (-0.2606109E+03)
 number of electron       8.0000000 magnetization 
 augmentation part        8.0000000 magnetization 

 Free energy of the ion-electron system (eV)
  ---------------------------------------------------
  alpha Z        PSCENC =         4.40202223
  Ewald energy   TEWEN  =      -265.18101312
  -Hartree energ DENC   =        -2.30415367
  -exchange      EXHF   =         0.00000000
  -V(xc)+E(xc)   XCENC  =       -17.81549222
  PAW double counting   =        65.95520812      -30.76852678
  entropy T*S    EENTRO =        -0.05689957
  eigenvalues    EBANDS =        37.53055835
  atomic energy  EATOM  =       206.13125414
  Solvation  Ediel_sol  =         0.00000000
  ---------------------------------------------------
  free energy    TOTEN  =        -2.10704251 eV

  energy without entropy =       -2.05014294  energy(sigma->0) =       -2.07859273


--------------------------------------------------------------------------------------------------------




--------------------------------------- Iteration      1(   2)  ---------------------------------------


     EDDAV:  cpu time    0.0480: real time    0.0579
       DOS:  cpu time    0.0000: real time    0.0011
    --------------------------------------------
      LOOP:  cpu time    0.0480: real time    0.0587

 eigenvalue-minimisations  :    72
 total energy-change (2. order) :-0.9868945E+01  (-0.9868024E+01)
 number of electron       8.0000000 magnetization 
 augmentation part        8.0000000 magnetization 

 Free energy of the ion-electron system (eV)
  ---------------------------------------------------
  alpha Z        PSCENC =         4.40202223
  Ewald energy   TEWEN  =      -265.18101312
  -Hartree energ DENC   =        -2.30415367
  -exchange      EXHF   =         0.00000000
  -V(xc)+E(xc)   XCENC  =       -17.81549222
  PAW double counting   =        65.95520812      -30.76852678
  entropy T*S    EENTRO =        -0.05641896
  eigenvalues    EBANDS =        27.66113250
  atomic energy  EATOM  =       206.13125414
  Solvation  Ediel_sol  =         0.00000000
  ---------------------------------------------------
  free energy    TOTEN  =       -11.97598776 eV

  energy without entropy =      -11.91956880  energy(sigma->0) =      -11.94777828


--------------------------------------------------------------------------------------------------------




--------------------------------------- Iteration      1(   3)  ---------------------------------------


     EDDAV:  cpu time    0.0440: real time    0.0640
       DOS:  cpu time    0.0000: real time    0.0014
    --------------------------------------------
      LOOP:  cpu time    0.0440: real time    0.0658

 eigenvalue-minimisations  :    64
 total energy-change (2. order) :-0.7902627E-01  (-0.7902627E-01)
 number of electron       8.0000000 magnetization 
 augmentation part        8.0000000 magnetization 

 Free energy of the ion-electron system (eV)
  ---------------------------------------------------
  alpha Z        PSCENC =         4.40202223
  Ewald energy   TEWEN  =      -265.18101312
  -Hartree energ DENC   =        -2.30415367
  -exchange      EXHF   =         0.00000000
  -V(xc)+E(xc)   XCENC  =       -17.81549222
  PAW double counting   =        65.95520812      -30.76852678
  entropy T*S    EENTRO =        -0.05641896
  eigenvalues    EBANDS =        27.58210623
  atomic energy  EATOM  =       206.13125414
  Solvation  Ediel_sol  =         0.00000000
  ---------------------------------------------------
  free energy    TOTEN  =       -12.05501403 eV

  energy without entropy =      -11.99859507  energy(sigma->0) =      -12.02680455


--------------------------------------------------------------------------------------------------------




--------------------------------------- Iteration      1(   4)  ---------------------------------------


     EDDAV:  cpu time    0.0480: real time    0.0536
       DOS:  cpu time    0.0000: real time    0.0012
    --------------------------------------------
      LOOP:  cpu time    0.0480: real time    0.0549

 eigenvalue-minimisations  :    72
 total energy-change (2. order) :-0.2588603E-03  (-0.2588608E-03)
 number of electron       8.0000000 magnetization 
 augmentation part        8.0000000 magnetization 

 Free energy of the ion-electron system (eV)
  ---------------------------------------------------
  alpha Z        PSCENC =         4.40202223
  Ewald energy   TEWEN  =      -265.18101312
  -Hartree energ DENC   =        -2.30415367
  -exchange      EXHF   =         0.00000000
  -V(xc)+E(xc)   XCENC  =       -17.81549222
  PAW double counting   =        65.95520812      -30.76852678
  entropy T*S    EENTRO =        -0.05641896
  eigenvalues    EBANDS =        27.58184737
  atomic energy  EATOM  =       206.13125414
  Solvation  Ediel_sol  =         0.00000000
  ---------------------------------------------------
  free energy    TOTEN  =       -12.05527289 eV

  energy without entropy =      -11.99885393  energy(sigma->0) =      -12.02706341


--------------------------------------------------------------------------------------------------------




--------------------------------------- Iteration      1(   5)  ---------------------------------------


     EDDAV:  cpu time    0.0400: real time    0.0456
       DOS:  cpu time    0.0000: real time    0.0014
    CHARGE:  cpu time    0.0120: real time    0.0139
    MIXING:  cpu time    0.0040: real time    0.0019
    --------------------------------------------
      LOOP:  cpu time    0.0560: real time    0.0627

 eigenvalue-minimisations  :    56
 total energy-change (2. order) :-0.2186567E-07  (-0.2110043E-07)
 number of electron       7.9999996 magnetization 
 augmentation part       -0.4723218 magnetization 

 Broyden mixing:
  rms(total) = 0.13922E+00    rms(broyden)= 0.13922E+00
  rms(prec ) = 0.32016E+00
  weight for this iteration     100.00

 Free energy of the ion-electron system (eV)
  ---------------------------------------------------
  alpha Z        PSCENC =         4.40202223
  Ewald energy   TEWEN  =      -265.18101312
  -Hartree energ DENC   =        -2.30415367
  -exchange      EXHF   =         0.00000000
  -V(xc)+E(xc)   XCENC  =       -17.81549222
  PAW double counting   =        65.95520812      -30.76852678
  entropy T*S    EENTRO =        -0.05641896
  eigenvalues    EBANDS =        27.58184735
  atomic energy  EATOM  =       206.13125414
  Solvation  Ediel_sol  =         0.00000000
  ---------------------------------------------------
  free energy    TOTEN  =       -12.05527291 eV

  energy without entropy =      -11.99885395  energy(sigma->0) =      -12.02706343


--------------------------------------------------------------------------------------------------------




--------------------------------------- Iteration      1(   6)  ---------------------------------------


    POTLOK:  cpu time    0.0240: real time    0.0358
    SETDIJ:  cpu time    0.0080: real time    0.0089
     EDDAV:  cpu time    0.0400: real time    0.0398
       DOS:  cpu time    0.0000: real time    0.0012
    CHARGE:  cpu time    0.0120: real time    0.0128
    MIXING:  cpu time    0.0040: real time    0.0018
    --------------------------------------------
      LOOP:  cpu time    0.0880: real time    0.1003

 eigenvalue-minimisations  :    64
 total energy-change (2. order) : 0.1105210E-01  (-0.4475992E-03)
 number of electron       7.9999996 magnetization 
 augmentation part       -0.4748201 magnetization 

 Broyden mixing:
  rms(total) = 0.86555E-01    rms(broyden)= 0.86555E-01
  rms(prec ) = 0.19820E+00
  weight for this iteration     100.00

 eigenvalues of (default mixing * dielectric matrix)
  average eigenvalue GAMMA=   2.6353
  2.6353

 Free energy of the ion-electron system (eV)
  ---------------------------------------------------
  alpha Z        PSCENC =         4.40202223
  Ewald energy   TEWEN  =      -265.18101312
  -Hartree energ DENC   =        -2.23660317
  -exchange      EXHF   =         0.00000000
  -V(xc)+E(xc)   XCENC  =       -17.74951504
  PAW double counting   =        67.39898085      -32.23683108
  entropy T*S    EENTRO =        -0.05641896
  eigenvalues    EBANDS =        27.48390332
  atomic energy  EATOM  =       206.13125414
  Solvation  Ediel_sol  =         0.00000000
  ---------------------------------------------------
  free energy    TOTEN  =       -12.04422081 eV

  energy without entropy =      -11.98780185  energy(sigma->0) =      -12.01601133


--------------------------------------------------------------------------------------------------------




--------------------------------------- Iteration      1(   7)  ---------------------------------------


    POTLOK:  cpu time    0.0200: real time    0.0347
    SETDIJ:  cpu time    0.0080: real time    0.0089
     EDDAV:  cpu time    0.0520: real time    0.0487
       DOS:  cpu time    0.0000: real time    0.0012
    CHARGE:  cpu time    0.0120: real time    0.0122
    MIXING:  cpu time    0.0000: real time    0.0017
    --------------------------------------------
      LOOP:  cpu time    0.0920: real time    0.1071

 eigenvalue-minimisations  :    80
 total energy-change (2. order) : 0.7175844E-02  (-0.1087809E-02)
 number of electron       7.9999996 magnetization 
 augmentation part       -0.4790492 magnetization 

 Broyden mixing:
  rms(total) = 0.43689E-02    rms(broyden)= 0.43686E-02
  rms(prec ) = 0.11622E-01
  weight for this iteration     100.00

 eigenvalues of (default mixing * dielectric matrix)
  average eigenvalue GAMMA=   2.4834
  2.4834  2.4834

 Free energy of the ion-electron system (eV)
  ---------------------------------------------------
  alpha Z        PSCENC =         4.40202223
  Ewald energy   TEWEN  =      -265.18101312
  -Hartree energ DENC   =        -2.21837901
  -exchange      EXHF   =         0.00000000
  -V(xc)+E(xc)   XCENC  =       -17.62616695
  PAW double counting   =        69.68747536      -34.56973246
  entropy T*S    EENTRO =        -0.05641896
  eigenvalues    EBANDS =        27.39391378
  atomic energy  EATOM  =       206.13125414
  Solvation  Ediel_sol  =         0.00000000
  ---------------------------------------------------
  free energy    TOTEN  =       -12.03704497 eV

  energy without entropy =      -11.98062601  energy(sigma->0) =      -12.00883549


--------------------------------------------------------------------------------------------------------




--------------------------------------- Iteration      1(   8)  ---------------------------------------


    POTLOK:  cpu time    0.0240: real time    0.0347
    SETDIJ:  cpu time    0.0080: real time    0.0089
     EDDAV:  cpu time    0.0360: real time    0.0364
       DOS:  cpu time    0.0000: real time    0.0019
    --------------------------------------------
      LOOP:  cpu time    0.0680: real time    0.0818

 eigenvalue-minimisations  :    56
 total energy-change (2. order) : 0.4133975E-04  (-0.1252249E-04)
 number of electron       7.9999996 magnetization 
 augmentation part       -0.4790492 magnetization 

 Free energy of the ion-electron system (eV)
  ---------------------------------------------------
  alpha Z        PSCENC =         4.40202223
  Ewald energy   TEWEN  =      -265.18101312
  -Hartree energ DENC   =        -2.24533371
  -exchange      EXHF   =         0.00000000
  -V(xc)+E(xc)   XCENC  =       -17.62311747
  PAW double counting   =        69.64452543      -34.53252202
  entropy T*S    EENTRO =        -0.05641896
  eigenvalues    EBANDS =        27.42359984
  atomic energy  EATOM  =       206.13125414
  Solvation  Ediel_sol  =         0.00000000
  ---------------------------------------------------
  free energy    TOTEN  =       -12.03700363 eV

  energy without entropy =      -11.98058467  energy(sigma->0) =      -12.00879415


--------------------------------------------------------------------------------------------------------




 average (electrostatic) potential at core
  the test charge radii are     0.9892
  (the norm of the test charge is              1.0000)
       1 -80.6786       2 -80.6786
 
 
 
 E-fermi :   8.5119     XC(G=0): -10.9115     alpha+bet :-15.6819


 k-point     1 :       0.2500    0.2500    0.2500
  band No.  band energies     occupation 
      1       3.3722      2.00000
      2       3.3722      2.00000
      3       4.0239      2.00000
      4       4.0239      2.00000
      5      13.1775      0.00000
      6      13.1776      0.00000
      7      14.9956      0.00000
      8      14.9956      0.00000

 k-point     2 :      -0.2500    0.2500    0.2500
  band No.  band energies     occupation 
      1      -3.1664      2.00000
      2       1.8872      2.00000
      3       3.6143      2.00000
      4       8.5119      1.00000
      5      12.8422      0.00000
      6      16.0115      0.00000
      7      17.2039      0.00000
      8      18.2327      0.00000

 k-point     3 :      -0.2500   -0.2500    0.2500
  band No.  band energies     occupation 
      1       0.8252      2.00000
      2       5.7291      2.00000
      3       5.8218      2.00000
      4       7.2484      2.00000
      5       7.2484      2.00000
      6      11.5235      0.00000
      7      12.2268      0.00000
      8      12.2268      0.00000


--------------------------------------------------------------------------------------------------------


 soft charge-density along one line, spin component           1
         0         1         2         3         4         5         6         7         8         9
 total charge-density along one line
 
 pseudopotential strength for first ion, spin component:           1
 18.073  -0.003   0.000  -0.000  -0.000  -0.000   0.000   0.000
 -0.003   0.005  -0.000   0.000   0.000   0.000  -0.000  -0.000
  0.000  -0.000   4.116   0.000   0.000  -0.006  -0.000  -0.000
 -0.000   0.000   0.000   4.117   0.000  -0.000  -0.006  -0.000
 -0.000   0.000   0.000   0.000   4.116  -0.000  -0.000  -0.006
 -0.000   0.000  -0.006  -0.000  -0.000   0.005   0.000   0.000
  0.000  -0.000  -0.000  -0.006  -0.000   0.000   0.005   0.000
  0.000  -0.000  -0.000  -0.000  -0.006   0.000   0.000   0.005
 total augmentation occupancy for first ion, spin component:           1
  1.654  -0.442   0.000   0.000   0.000   0.000   0.000  -0.000
 -0.442   0.766   0.000   0.000   0.000   0.000   0.000   0.000
  0.000  -0.000   0.820   0.000  -0.000  -0.456   0.000   0.000
  0.000   0.000   0.000   0.903   0.000   0.000  -0.582   0.000
  0.000  -0.000  -0.000   0.000   0.820   0.000  -0.000  -0.456
  0.000   0.000  -0.456   0.000   0.000   0.323   0.000  -0.000
  0.000   0.000   0.000  -0.582  -0.000   0.000   0.400  -0.000
  0.000   0.000   0.000   0.000  -0.456  -0.000  -0.000   0.323


------------------------ aborting loop because EDIFF is reached ----------------------------------------


    CHARGE:  cpu time    0.0160: real time    0.0184
    FORLOC:  cpu time    0.0040: real time    0.0008
    FORNL :  cpu time    0.0080: real time    0.0084
    STRESS:  cpu time    0.0320: real time    0.0343
    FORCOR:  cpu time    0.0200: real time    0.0195
    FORHAR:  cpu time    0.0040: real time    0.0043
    MIXING:  cpu time    0.0040: real time    0.0013
    OFIELD:  cpu time    0.0000: real time    0.0002

  FORCE on cell =-STRESS in cart. coord.  units (eV):
  Direction    XX          YY          ZZ          XY          YZ          ZX
  --------------------------------------------------------------------------------------
  Alpha Z     4.40202     4.40202     4.40202
  Ewald     -90.96023   -90.96023   -83.26083    -0.00000     0.00000     0.00000
  Hartree     0.52178     0.52178     1.20470    -0.00000    -0.00000    -0.00000
  E(xc)     -25.33229   -25.33229   -25.25685     0.00000     0.00000     0.00000
  Local     -11.06456   -11.06456   -16.32731    -0.00002    -0.00002    -0.00002
  n-local    76.64723    77.50840    76.06434     0.00000    -0.00003     0.00002
  augment   -12.12777   -12.12777   -12.33210     0.00002     0.00002     0.00002
  Kinetic    52.00775    53.93861    60.05817     0.00000     0.00000    -0.00001
  Fock        0.00000     0.00000     0.00000     0.00000     0.00000     0.00000
  -------------------------------------------------------------------------------------
  Total      -4.51006    -4.51006     4.55214     0.00000    -0.00000     0.00000
  in kB    -236.22774  -236.22774   238.43210     0.00000    -0.00000     0.00000
  external pressure =      -78.01 kB  Pullay stress =        0.00 kB


 VOLUME and BASIS-vectors are now :
 -----------------------------------------------------------------------------
  energy-cutoff  :      350.00
  volume of cell :       30.59
      direct lattice vectors                 reciprocal lattice vectors
    -2.450000000  2.450000000  1.274000000     0.000000000  0.204081633  0.392464678
     2.450000000 -2.450000000  1.274000000     0.204081633  0.000000000  0.392464678
     2.450000000  2.450000000 -1.274000000     0.204081633  0.204081633 -0.000000000

  length of vectors
     3.691622408  3.691622408  3.691622408     0.442354876  0.442354876  0.288615013


 FORCES acting on ions
    electron-ion (+dipol)            ewald-force                    non-local-force                 convergence-correction
 -----------------------------------------------------------------------------------------------
   -.151E-06 0.151E-06 0.119E-13   0.198E-14 0.156E-15 0.342E-17   -.121E-17 -.298E-18 -.130E-18   -.816E-08 0.816E-08 0.223E-16
   0.151E-06 -.151E-06 -.505E-14   -.185E-14 0.943E-16 0.891E-15   -.103E-17 -.207E-18 0.219E-18   0.816E-08 -.816E-08 -.128E-15
 -----------------------------------------------------------------------------------------------
   -.160E-13 0.265E-22 0.680E-14   0.139E-15 0.250E-15 0.894E-15   -.224E-17 -.505E-18 0.889E-19   -.819E-16 -.122E-15 -.105E-15
 
 
 POSITION                                       TOTAL-FORCE (eV/Angst)
 -----------------------------------------------------------------------------------
      2.45000      0.00000      0.63700        -0.000000      0.000000      0.000000
      0.00000      0.00000      0.00000         0.000000     -0.000000     -0.000000
 -----------------------------------------------------------------------------------
    total drift:                               -0.000000      0.000000      0.000000


--------------------------------------------------------------------------------------------------------



  FREE ENERGIE OF THE ION-ELECTRON SYSTEM (eV)
  ---------------------------------------------------
  free  energy   TOTEN  =       -12.03700363 eV

  energy  without entropy=      -11.98058467  energy(sigma->0) =      -12.00879415
 


--------------------------------------------------------------------------------------------------------


    POTLOK:  cpu time    0.0320: real time    0.0519


--------------------------------------------------------------------------------------------------------




--------------------------------------------------------------------------------------------------------


    WAVPRE:  cpu time    0.4720: real time    1.5503
    FEWALD:  cpu time    0.0000: real time    0.0005
    GENKIN:  cpu time    0.0000: real time    0.0009
    ORTHCH:  cpu time    0.0040: real time    0.0033
     LOOP+:  cpu time    1.1440: real time    2.3803


--------------------------------------- Iteration      2(   1)  ---------------------------------------


    POTLOK:  cpu time    0.0280: real time    0.0337
    SETDIJ:  cpu time    0.0080: real time    0.0091
     EDDAV:  cpu time    0.0360: real time    0.0357
       DOS:  cpu time    0.0000: real time    0.0034
    CHARGE:  cpu time    0.0120: real time    0.0136
    MIXING:  cpu time    0.0040: real time    0.0015
    --------------------------------------------
      LOOP:  cpu time    0.0880: real time    0.0978

 eigenvalue-minimisations  :    48
 total energy-change (2. order) :-0.1324914E+00  (-0.2962560E+01)
 number of electron       8.0000000 magnetization 
 augmentation part       -0.4961264 magnetization 

 Broyden mixing:
  rms(total) = 0.32983E+00    rms(broyden)= 0.32982E+00
  rms(prec ) = 0.10551E+01
  weight for this iteration     100.00

 Free energy of the ion-electron system (eV)
  ---------------------------------------------------
  alpha Z        PSCENC =         4.99395392
  Ewald energy   TEWEN  =      -275.22311937
  -Hartree energ DENC   =        -2.24553289
  -exchange      EXHF   =         0.00000000
  -V(xc)+E(xc)   XCENC  =       -17.00860337
  PAW double counting   =        69.64529716      -34.53376358
  entropy T*S    EENTRO =        -0.05641896
  eigenvalues    EBANDS =        36.12739661
  atomic energy  EATOM  =       206.13125414
  Solvation  Ediel_sol  =         0.00000000
  ---------------------------------------------------
  free energy    TOTEN  =       -12.16953634 eV

  energy without entropy =      -12.11311738  energy(sigma->0) =      -12.14132686


--------------------------------------------------------------------------------------------------------




--------------------------------------- Iteration      2(   2)  ---------------------------------------


    POTLOK:  cpu time    0.0240: real time    0.0445
    SETDIJ:  cpu time    0.0120: real time    0.0090
     EDDAV:  cpu time    0.0520: real time    0.0531
       DOS:  cpu time    0.0000: real time    0.0014
    CHARGE:  cpu time    0.0160: real time    0.0136
    MIXING:  cpu time    0.0000: real time    0.0016
    --------------------------------------------
      LOOP:  cpu time    0.1040: real time    0.1234

 eigenvalue-minimisations  :    72
 total energy-change (2. order) : 0.2706997E+00  (-0.4944101E-01)
 number of electron       8.0000000 magnetization 
 augmentation part       -0.4954888 magnetization 

 Broyden mixing:
  rms(total) = 0.19070E+00    rms(broyden)= 0.19070E+00
  rms(prec ) = 0.60771E+00
  weight for this iteration     100.00

 eigenvalues of (default mixing * dielectric matrix)
  average eigenvalue GAMMA=   2.3676
  2.3676

 Free energy of the ion-electron system (eV)
  ---------------------------------------------------
  alpha Z        PSCENC =         4.99395392
  Ewald energy   TEWEN  =      -275.22311937
  -Hartree energ DENC   =        -2.19903287
  -exchange      EXHF   =         0.00000000
  -V(xc)+E(xc)   XCENC  =       -16.95032643
  PAW double counting   =        72.21546768      -37.17058066
  entropy T*S    EENTRO =        -0.05641896
  eigenvalues    EBANDS =        36.35996590
  atomic energy  EATOM  =       206.13125414
  Solvation  Ediel_sol  =         0.00000000
  ---------------------------------------------------
  free energy    TOTEN  =       -11.89883665 eV

  energy without entropy =      -11.84241769  energy(sigma->0) =      -11.87062717


--------------------------------------------------------------------------------------------------------




--------------------------------------- Iteration      2(   3)  ---------------------------------------


    POTLOK:  cpu time    0.0280: real time    0.0353
    SETDIJ:  cpu time    0.0080: real time    0.0092
     EDDAV:  cpu time    0.0400: real time    0.0414
       DOS:  cpu time    0.0000: real time    0.0012
    CHARGE:  cpu time    0.0160: real time    0.0134
    MIXING:  cpu time    0.0000: real time    0.0017
    --------------------------------------------
      LOOP:  cpu time    0.0920: real time    0.1023

 eigenvalue-minimisations  :    56
 total energy-change (2. order) : 0.1407822E+00  (-0.3290964E-01)
 number of electron       8.0000000 magnetization 
 augmentation part       -0.4944317 magnetization 

 Broyden mixing:
  rms(total) = 0.18646E-01    rms(broyden)= 0.18646E-01
  rms(prec ) = 0.53376E-01
  weight for this iteration     100.00

 eigenvalues of (default mixing * dielectric matrix)
  average eigenvalue GAMMA=   1.3290
  2.3520  0.3060

 Free energy of the ion-electron system (eV)
  ---------------------------------------------------
  alpha Z        PSCENC =         4.99395392
  Ewald energy   TEWEN  =      -275.22311937
  -Hartree energ DENC   =        -2.59882229
  -exchange      EXHF   =         0.00000000
  -V(xc)+E(xc)   XCENC  =       -16.80718798
  PAW double counting   =        75.78293808      -40.83084977
  entropy T*S    EENTRO =        -0.05641896
  eigenvalues    EBANDS =        36.85019774
  atomic energy  EATOM  =       206.13125414
  Solvation  Ediel_sol  =         0.00000000
  ---------------------------------------------------
  free energy    TOTEN  =       -11.75805448 eV

  energy without entropy =      -11.70163552  energy(sigma->0) =      -11.72984500


--------------------------------------------------------------------------------------------------------




--------------------------------------- Iteration      2(   4)  ---------------------------------------


    POTLOK:  cpu time    0.0280: real time    0.0346
    SETDIJ:  cpu time    0.0080: real time    0.0090
     EDDAV:  cpu time    0.0360: real time    0.0356
       DOS:  cpu time    0.0000: real time    0.0014
    CHARGE:  cpu time    0.0160: real time    0.0135
    MIXING:  cpu time    0.0000: real time    0.0018
    --------------------------------------------
      LOOP:  cpu time    0.0880: real time    0.0958

 eigenvalue-minimisations  :    48
 total energy-change (2. order) :-0.8211558E-03  (-0.1003571E-02)
 number of electron       8.0000000 magnetization 
 augmentation part       -0.4946490 magnetization 

 Broyden mixing:
  rms(total) = 0.18452E-01    rms(broyden)= 0.18452E-01
  rms(prec ) = 0.50099E-01
  weight for this iteration     100.00

 eigenvalues of (default mixing * dielectric matrix)
  average eigenvalue GAMMA=   1.0946
  2.3530  0.4654  0.4654

 Free energy of the ion-electron system (eV)
  ---------------------------------------------------
  alpha Z        PSCENC =         4.99395392
  Ewald energy   TEWEN  =      -275.22311937
  -Hartree energ DENC   =        -2.58850118
  -exchange      EXHF   =         0.00000000
  -V(xc)+E(xc)   XCENC  =       -16.80827994
  PAW double counting   =        75.74483822      -40.79186323
  entropy T*S    EENTRO =        -0.05641896
  eigenvalues    EBANDS =        36.83926076
  atomic energy  EATOM  =       206.13125414
  Solvation  Ediel_sol  =         0.00000000
  ---------------------------------------------------
  free energy    TOTEN  =       -11.75887563 eV

  energy without entropy =      -11.70245667  energy(sigma->0) =      -11.73066615


--------------------------------------------------------------------------------------------------------




--------------------------------------- Iteration      2(   5)  ---------------------------------------


    POTLOK:  cpu time    0.0280: real time    0.0448
    SETDIJ:  cpu time    0.0080: real time    0.0089
     EDDAV:  cpu time    0.0360: real time    0.0369
       DOS:  cpu time    0.0000: real time    0.0019
    --------------------------------------------
      LOOP:  cpu time    0.0760: real time    0.0928

 eigenvalue-minimisations  :    48
 total energy-change (2. order) : 0.1652063E-03  (-0.8018622E-05)
 number of electron       8.0000000 magnetization 
 augmentation part       -0.4946490 magnetization 

 Free energy of the ion-electron system (eV)
  ---------------------------------------------------
  alpha Z        PSCENC =         4.99395392
  Ewald energy   TEWEN  =      -275.22311937
  -Hartree energ DENC   =        -2.57556081
  -exchange      EXHF   =         0.00000000
  -V(xc)+E(xc)   XCENC  =       -16.80849313
  PAW double counting   =        75.74152350      -40.78844606
  entropy T*S    EENTRO =        -0.05641896
  eigenvalues    EBANDS =        36.82659633
  atomic energy  EATOM  =       206.13125414
  Solvation  Ediel_sol  =         0.00000000
  ---------------------------------------------------
  free energy    TOTEN  =       -11.75871043 eV

  energy without entropy =      -11.70229147  energy(sigma->0) =      -11.73050095


--------------------------------------------------------------------------------------------------------




 average (electrostatic) potential at core
  the test charge radii are     0.9892
  (the norm of the test charge is              1.0000)
       1 -78.6957       2 -78.6957
 
 
 
 E-fermi :  11.6765     XC(G=0): -11.3848     alpha+bet :-17.7906


 k-point     1 :       0.2500    0.2500    0.2500
  band No.  band energies     occupation 
      1       3.2098      2.00000
      2       3.2098      2.00000
      3       4.8387      2.00000
      4       4.8387      2.00000
      5      15.6260      0.00000
      6      15.6260      0.00000
      7      18.2962      0.00000
      8      18.2962      0.00000

 k-point     2 :      -0.2500    0.2500    0.2500
  band No.  band energies     occupation 
      1      -2.2341      2.00000
      2       4.8934      2.00000
      3       5.1813      2.00000
      4      11.6765      1.00000
      5      14.6858      0.00000
      6      15.2999      0.00000
      7      19.1720      0.00000
      8      19.4452      0.00000

 k-point     3 :      -0.2500   -0.2500    0.2500
  band No.  band energies     occupation 
      1       0.2487      2.00000
      2       7.3657      2.00000
      3       7.3657      2.00000
      4       7.4502      2.00000
      5       7.7683      2.00000
      6      14.3997      0.00000
      7      14.3997      0.00000
      8      15.9344      0.00000


--------------------------------------------------------------------------------------------------------


 soft charge-density along one line, spin component           1
         0         1         2         3         4         5         6         7         8         9
 total charge-density along one line
 
 pseudopotential strength for first ion, spin component:           1
 17.874  -0.005  -0.000  -0.000   0.000   0.000   0.000  -0.000
 -0.005   0.005   0.000   0.000  -0.000  -0.000  -0.000   0.000
 -0.000   0.000   4.098   0.000   0.000  -0.007  -0.000  -0.000
 -0.000   0.000   0.000   4.098   0.000  -0.000  -0.007  -0.000
  0.000  -0.000   0.000   0.000   4.098  -0.000  -0.000  -0.007
  0.000  -0.000  -0.007  -0.000  -0.000   0.005   0.000   0.000
  0.000  -0.000  -0.000  -0.007  -0.000   0.000   0.005   0.000
 -0.000   0.000  -0.000  -0.000  -0.007   0.000   0.000   0.005
 total augmentation occupancy for first ion, spin component:           1
  1.685  -0.703  -0.000   0.000  -0.000   0.000   0.000  -0.000
 -0.703   1.214   0.000   0.000   0.000  -0.000   0.000   0.000
 -0.000   0.000   1.030  -0.000   0.000  -0.682   0.000  -0.000
  0.000   0.000  -0.000   0.759  -0.000   0.000  -0.520  -0.000
 -0.000   0.000   0.000  -0.000   1.030  -0.000   0.000  -0.682
 -0.000   0.000  -0.682   0.000  -0.000   0.563   0.000   0.000
  0.000   0.000   0.000  -0.520   0.000   0.000   0.416  -0.000
 -0.000   0.000  -0.000  -0.000  -0.682   0.000  -0.000   0.563


------------------------ aborting loop because EDIFF is reached ----------------------------------------


    CHARGE:  cpu time    0.0120: real time    0.0132
    FORLOC:  cpu time    0.0000: real time    0.0009
    FORNL :  cpu time    0.0120: real time    0.0094
    STRESS:  cpu time    0.0360: real time    0.0375
    FORCOR:  cpu time    0.0200: real time    0.0204
    FORHAR:  cpu time    0.0040: real time    0.0049
    MIXING:  cpu time    0.0040: real time    0.0015
    OFIELD:  cpu time    0.0000: real time    0.0004

  FORCE on cell =-STRESS in cart. coord.  units (eV):
  Direction    XX          YY          ZZ          XY          YZ          ZX
  --------------------------------------------------------------------------------------
  Alpha Z     4.99395     4.99395     4.99395
  Ewald     -83.83030   -83.83030  -107.56268    -0.00000     0.00000     0.00000
  Hartree     1.27120     1.27120    -0.07281    -0.00000    -0.00000    -0.00000
  E(xc)     -26.58513   -26.58513   -26.23273     0.00001     0.00000     0.00000
  Local     -21.42910   -21.42910     5.13215    -0.00002    -0.00002    -0.00002
  n-local    83.37213    82.85995    76.81473     0.00001    -0.00008     0.00000
  augment   -12.73866   -12.73866   -12.05198     0.00002     0.00002     0.00002
  Kinetic    59.58713    64.68291    55.09963     0.00000     0.00001    -0.00000
  Fock        0.00000     0.00000     0.00000     0.00000     0.00000     0.00000
  -------------------------------------------------------------------------------------
  Total       6.93300     6.93300    -3.87973     0.00000     0.00000     0.00000
  in kB     411.96725   411.96725  -230.53813     0.00000     0.00000     0.00000
  external pressure =      197.80 kB  Pullay stress =        0.00 kB


 VOLUME and BASIS-vectors are now :
 -----------------------------------------------------------------------------
  energy-cutoff  :      350.00
  volume of cell :       26.96
      direct lattice vectors                 reciprocal lattice vectors
    -2.183468111  2.183468111  1.413889896     0.000000000  0.228993498  0.353634326
     2.183468111 -2.183468111  1.413889896     0.228993498  0.000000000  0.353634326
     2.183468111  2.183468111 -1.413889896     0.228993498  0.228993498  0.000000000

  length of vectors
     3.396196493  3.396196493  3.396196493     0.421301861  0.421301861  0.323845710


 FORCES acting on ions
    electron-ion (+dipol)            ewald-force                    non-local-force                 convergence-correction
 -----------------------------------------------------------------------------------------------
   0.246E-06 -.246E-06 -.113E-13   -.918E-15 0.227E-14 -.228E-15   0.586E-17 -.239E-18 0.183E-16   0.193E-07 -.193E-07 -.194E-15
   -.246E-06 0.246E-06 0.292E-13   0.929E-15 -.248E-14 0.867E-15   -.168E-16 0.111E-17 -.152E-16   -.193E-07 0.193E-07 -.422E-15
 -----------------------------------------------------------------------------------------------
   -.266E-13 -.648E-14 0.179E-13   0.110E-16 -.211E-15 0.639E-15   -.109E-16 0.874E-18 0.303E-17   0.213E-15 0.224E-15 -.616E-15
 
 
 POSITION                                       TOTAL-FORCE (eV/Angst)
 -----------------------------------------------------------------------------------
      2.18347      0.00000      0.70694         0.000000      0.000000      0.000000
      0.00000     -0.00000     -0.00000        -0.000000     -0.000000     -0.000000
 -----------------------------------------------------------------------------------
    total drift:                               -0.000000     -0.000000      0.000000


--------------------------------------------------------------------------------------------------------



  FREE ENERGIE OF THE ION-ELECTRON SYSTEM (eV)
  ---------------------------------------------------
  free  energy   TOTEN  =       -11.75871043 eV

  energy  without entropy=      -11.70229147  energy(sigma->0) =      -11.73050095
 
 d Force = 0.0000000E+00[ 0.000E+00, 0.000E+00]  d Energy =-0.2782932E+00 0.278E+00
 d Force = 0.0000000E+00[ 0.000E+00, 0.000E+00]  d Ewald  = 0.1004211E+02-0.100E+02


--------------------------------------------------------------------------------------------------------


    POTLOK:  cpu time    0.0400: real time    0.0506


--------------------------------------------------------------------------------------------------------


 Steepest descent step on ions:
 trial-energy change:    0.278293  1 .order    0.226672   -1.481126    1.934471
  (g-gl).g = 0.148E+01      g.g   = 0.148E+01  gl.gl    = 0.000E+00
 g(Force)  = 0.484E-47   g(Stress)= 0.148E+01 ortho     = 0.000E+00
 gamma     =   0.00000
 trial     =   1.00000
 opt step  =   0.41167  (harmonic =   0.43364) maximal distance =0.00000000
 next E    =   -12.338272   (d E  =  -0.30127)


--------------------------------------------------------------------------------------------------------


    WAVPRE:  cpu time    0.0120: real time    0.0467
    FEWALD:  cpu time    0.0000: real time    0.0007
    GENKIN:  cpu time    0.0040: real time    0.0024
    ORTHCH:  cpu time    0.0000: real time    0.0023
     LOOP+:  cpu time    0.6280: real time    0.7862


--------------------------------------- Iteration      3(   1)  ---------------------------------------


    POTLOK:  cpu time    0.0280: real time    0.0324
    SETDIJ:  cpu time    0.0120: real time    0.0087
     EDDAV:  cpu time    0.0320: real time    0.0359
       DOS:  cpu time    0.0040: real time    0.0016
    CHARGE:  cpu time    0.0120: real time    0.0134
    MIXING:  cpu time    0.0000: real time    0.0078
    --------------------------------------------
      LOOP:  cpu time    0.0920: real time    0.1021

 eigenvalue-minimisations  :    48
 total energy-change (2. order) :-0.7241309E+00  (-0.1009233E+01)
 number of electron       8.0000004 magnetization 
 augmentation part       -0.4795329 magnetization 

 Broyden mixing:
  rms(total) = 0.18058E+00    rms(broyden)= 0.18057E+00
  rms(prec ) = 0.55600E+00
  weight for this iteration     100.00

 Free energy of the ion-electron system (eV)
  ---------------------------------------------------
  alpha Z        PSCENC =         4.61582711
  Ewald energy   TEWEN  =      -269.42422430
  -Hartree energ DENC   =        -2.31853395
  -exchange      EXHF   =         0.00000000
  -V(xc)+E(xc)   XCENC  =       -17.23414295
  PAW double counting   =        75.69515084      -40.74147125
  entropy T*S    EENTRO =        -0.05641896
  eigenvalues    EBANDS =        30.84955275
  atomic energy  EATOM  =       206.13125414
  Solvation  Ediel_sol  =         0.00000000
  ---------------------------------------------------
  free energy    TOTEN  =       -12.48300656 eV

  energy without entropy =      -12.42658760  energy(sigma->0) =      -12.45479708


--------------------------------------------------------------------------------------------------------




--------------------------------------- Iteration      3(   2)  ---------------------------------------


    POTLOK:  cpu time    0.0280: real time    0.0720
    SETDIJ:  cpu time    0.0080: real time    0.0088
     EDDAV:  cpu time    0.0440: real time    0.0410
       DOS:  cpu time    0.0000: real time    0.0015
    CHARGE:  cpu time    0.0120: real time    0.0134
    MIXING:  cpu time    0.0040: real time    0.0016
    --------------------------------------------
      LOOP:  cpu time    0.0920: real time    0.1367

 eigenvalue-minimisations  :    56
 total energy-change (2. order) : 0.8189004E-01  (-0.1482498E-01)
 number of electron       8.0000004 magnetization 
 augmentation part       -0.4842442 magnetization 

 Broyden mixing:
  rms(total) = 0.10415E+00    rms(broyden)= 0.10415E+00
  rms(prec ) = 0.31982E+00
  weight for this iteration     100.00

 eigenvalues of (default mixing * dielectric matrix)
  average eigenvalue GAMMA=   2.3295
  2.3295

 Free energy of the ion-electron system (eV)
  ---------------------------------------------------
  alpha Z        PSCENC =         4.61582711
  Ewald energy   TEWEN  =      -269.42422430
  -Hartree energ DENC   =        -2.11446215
  -exchange      EXHF   =         0.00000000
  -V(xc)+E(xc)   XCENC  =       -17.28807299
  PAW double counting   =        73.72390251      -38.71708550
  entropy T*S    EENTRO =        -0.05641896
  eigenvalues    EBANDS =        30.72816362
  atomic energy  EATOM  =       206.13125414
  Solvation  Ediel_sol  =         0.00000000
  ---------------------------------------------------
  free energy    TOTEN  =       -12.40111652 eV

  energy without entropy =      -12.34469756  energy(sigma->0) =      -12.37290704


--------------------------------------------------------------------------------------------------------




--------------------------------------- Iteration      3(   3)  ---------------------------------------


    POTLOK:  cpu time    0.0240: real time    0.0528
    SETDIJ:  cpu time    0.0120: real time    0.0089
     EDDAV:  cpu time    0.0400: real time    0.0411
       DOS:  cpu time    0.0000: real time    0.0021
    CHARGE:  cpu time    0.0120: real time    0.0135
    MIXING:  cpu time    0.0040: real time    0.0017
    --------------------------------------------
      LOOP:  cpu time    0.0920: real time    0.1210

 eigenvalue-minimisations  :    56
 total energy-change (2. order) : 0.4457716E-01  (-0.1034744E-01)
 number of electron       8.0000004 magnetization 
 augmentation part       -0.4832096 magnetization 

 Broyden mixing:
  rms(total) = 0.10163E-01    rms(broyden)= 0.10163E-01
  rms(prec ) = 0.24505E-01
  weight for this iteration     100.00

 eigenvalues of (default mixing * dielectric matrix)
  average eigenvalue GAMMA=   1.5949
  0.9011  2.2886

 Free energy of the ion-electron system (eV)
  ---------------------------------------------------
  alpha Z        PSCENC =         4.61582711
  Ewald energy   TEWEN  =      -269.42422430
  -Hartree energ DENC   =        -2.02292352
  -exchange      EXHF   =         0.00000000
  -V(xc)+E(xc)   XCENC  =       -17.34767238
  PAW double counting   =        71.19113584      -36.12182977
  entropy T*S    EENTRO =        -0.05641896
  eigenvalues    EBANDS =        30.67831247
  atomic energy  EATOM  =       206.13125414
  Solvation  Ediel_sol  =         0.00000000
  ---------------------------------------------------
  free energy    TOTEN  =       -12.35653935 eV

  energy without entropy =      -12.30012040  energy(sigma->0) =      -12.32832988


--------------------------------------------------------------------------------------------------------




--------------------------------------- Iteration      3(   4)  ---------------------------------------


    POTLOK:  cpu time    0.0160: real time    0.0233
    SETDIJ:  cpu time    0.0040: real time    0.0046
     EDDAV:  cpu time    0.0160: real time    0.0159
       DOS:  cpu time    0.0000: real time    0.0017
    --------------------------------------------
      LOOP:  cpu time    0.0360: real time    0.0447

 eigenvalue-minimisations  :    48
 total energy-change (2. order) :-0.1738646E-03  (-0.3065768E-03)
 number of electron       8.0000004 magnetization 
 augmentation part       -0.4832096 magnetization 

 Free energy of the ion-electron system (eV)
  ---------------------------------------------------
  alpha Z        PSCENC =         4.61582711
  Ewald energy   TEWEN  =      -269.42422430
  -Hartree energ DENC   =        -2.03780730
  -exchange      EXHF   =         0.00000000
  -V(xc)+E(xc)   XCENC  =       -17.34751978
  PAW double counting   =        71.18209695      -36.11179296
  entropy T*S    EENTRO =        -0.05641896
  eigenvalues    EBANDS =        30.69187188
  atomic energy  EATOM  =       206.13125414
  Solvation  Ediel_sol  =         0.00000000
  ---------------------------------------------------
  free energy    TOTEN  =       -12.35671322 eV

  energy without entropy =      -12.30029426  energy(sigma->0) =      -12.32850374


--------------------------------------------------------------------------------------------------------




 average (electrostatic) potential at core
  the test charge radii are     0.9892
  (the norm of the test charge is              1.0000)
       1 -80.0155       2 -80.0155
 
 
 
 E-fermi :   9.7593     XC(G=0): -11.1026     alpha+bet :-16.4436


 k-point     1 :       0.2500    0.2500    0.2500
  band No.  band energies     occupation 
      1       3.1885      2.00000
      2       3.1885      2.00000
      3       4.3393      2.00000
      4       4.3393      2.00000
      5      13.9953      0.00000
      6      13.9953      0.00000
      7      16.1051      0.00000
      8      16.1051      0.00000

 k-point     2 :      -0.2500    0.2500    0.2500
  band No.  band energies     occupation 
      1      -2.8034      2.00000
      2       3.0473      2.00000
      3       4.1806      2.00000
      4       9.7593      1.00000
      5      14.4691      0.00000
      6      16.3130      0.00000
      7      17.2994      0.00000
      8      17.5057      0.00000

 k-point     3 :      -0.2500   -0.2500    0.2500
  band No.  band energies     occupation 
      1       0.5299      2.00000
      2       6.3413      2.00000
      3       6.5056      2.00000
      4       7.1715      2.00000
      5       7.1715      2.00000
      6      12.9487      0.00000
      7      12.9487      0.00000
      8      13.1088      0.00000


--------------------------------------------------------------------------------------------------------


 soft charge-density along one line, spin component           1
         0         1         2         3         4         5         6         7         8         9
 total charge-density along one line
 
 pseudopotential strength for first ion, spin component:           1
 18.004  -0.003   0.000  -0.000  -0.000  -0.000   0.000   0.000
 -0.003   0.005  -0.000   0.000   0.000   0.000  -0.000  -0.000
  0.000  -0.000   4.108   0.000   0.000  -0.006  -0.000  -0.000
 -0.000   0.000   0.000   4.109   0.000  -0.000  -0.006  -0.000
 -0.000   0.000   0.000   0.000   4.108  -0.000  -0.000  -0.006
 -0.000   0.000  -0.006  -0.000  -0.000   0.005   0.000   0.000
  0.000  -0.000  -0.000  -0.006  -0.000   0.000   0.005   0.000
  0.000  -0.000  -0.000  -0.000  -0.006   0.000   0.000   0.005
 total augmentation occupancy for first ion, spin component:           1
  1.664  -0.507  -0.000   0.000   0.000   0.000   0.000   0.000
 -0.507   0.849   0.000   0.000   0.000  -0.000   0.000   0.000
  0.000  -0.000   0.898   0.000   0.000  -0.540  -0.000   0.000
  0.000   0.000   0.000   0.812   0.000   0.000  -0.526   0.000
  0.000   0.000   0.000   0.000   0.898  -0.000   0.000  -0.540
  0.000   0.000  -0.540   0.000  -0.000   0.411  -0.000   0.000
  0.000   0.000  -0.000  -0.526   0.000  -0.000   0.370   0.000
  0.000   0.000   0.000   0.000  -0.540   0.000   0.000   0.411


------------------------ aborting loop because EDIFF is reached ----------------------------------------


    CHARGE:  cpu time    0.0080: real time    0.0052
    FORLOC:  cpu time    0.0000: real time    0.0004
    FORNL :  cpu time    0.0040: real time    0.0040
    STRESS:  cpu time    0.0160: real time    0.0148
    FORCOR:  cpu time    0.0080: real time    0.0089
    FORHAR:  cpu time    0.0000: real time    0.0023
    MIXING:  cpu time    0.0000: real time    0.0006
    OFIELD:  cpu time    0.0000: real time    0.0003

  FORCE on cell =-STRESS in cart. coord.  units (eV):
  Direction    XX          YY          ZZ          XY          YZ          ZX
  --------------------------------------------------------------------------------------
  Alpha Z     4.61583     4.61583     4.61583
  Ewald     -87.54143   -87.54143   -94.34158     0.00000    -0.00000    -0.00000
  Hartree     0.77685     0.77685     0.50108    -0.00000    -0.00000    -0.00000
  E(xc)     -25.71823   -25.71823   -25.50124     0.00000    -0.00000    -0.00000
  Local     -15.41871   -15.41871    -5.85174    -0.00002    -0.00002    -0.00002
  n-local    78.79583    79.14210    75.49062    -0.00001    -0.00002    -0.00001
  augment   -12.36123   -12.36123   -12.12868     0.00001     0.00001     0.00001
  Kinetic    54.97200    57.57575    56.86256    -0.00000    -0.00000    -0.00000
  Fock        0.00000     0.00000     0.00000     0.00000     0.00000     0.00000
  -------------------------------------------------------------------------------------
  Total      -0.40409    -0.40409    -0.35315    -0.00000     0.00000    -0.00000
  in kB     -22.19317   -22.19317   -19.39569    -0.00000     0.00000    -0.00000
  external pressure =      -21.26 kB  Pullay stress =        0.00 kB


 VOLUME and BASIS-vectors are now :
 -----------------------------------------------------------------------------
  energy-cutoff  :      350.00
  volume of cell :       29.17
      direct lattice vectors                 reciprocal lattice vectors
    -2.340275850  2.340275850  1.331588981     0.000000000  0.213650028  0.375491242
     2.340275850 -2.340275850  1.331588981     0.213650028  0.000000000  0.375491242
     2.340275850  2.340275850 -1.331588981     0.213650028  0.213650028  0.000000000

  length of vectors
     3.567479688  3.567479688  3.567479688     0.432018526  0.432018526  0.302146767


 FORCES acting on ions
    electron-ion (+dipol)            ewald-force                    non-local-force                 convergence-correction
 -----------------------------------------------------------------------------------------------
   0.853E-07 -.853E-07 0.173E-13   0.228E-14 -.327E-14 0.218E-15   0.216E-17 0.255E-17 0.110E-17   -.290E-07 0.290E-07 0.795E-16
   -.853E-07 0.853E-07 -.500E-14   -.214E-14 0.363E-14 0.705E-15   -.108E-18 -.328E-17 -.137E-17   0.290E-07 -.290E-07 -.609E-16
 -----------------------------------------------------------------------------------------------
   -.179E-13 -.949E-16 0.123E-13   0.141E-15 0.364E-15 0.923E-15   0.205E-17 -.727E-18 -.275E-18   0.103E-15 -.142E-15 0.186E-16
 
 
 POSITION                                       TOTAL-FORCE (eV/Angst)
 -----------------------------------------------------------------------------------
      2.34028      0.00000      0.66579        -0.000000     -0.000000     -0.000000
      0.00000     -0.00000     -0.00000         0.000000      0.000000      0.000000
 -----------------------------------------------------------------------------------
    total drift:                               -0.000000      0.000000      0.000000


--------------------------------------------------------------------------------------------------------



  FREE ENERGIE OF THE ION-ELECTRON SYSTEM (eV)
  ---------------------------------------------------
  free  energy   TOTEN  =       -12.35671322 eV

  energy  without entropy=      -12.30029426  energy(sigma->0) =      -12.32850374
 
 d Force = 0.0000000E+00[ 0.000E+00, 0.000E+00]  d Energy = 0.5980028E+00-0.598E+00
 d Force = 0.0000000E+00[ 0.000E+00, 0.000E+00]  d Ewald  =-0.5798895E+01 0.580E+01


--------------------------------------------------------------------------------------------------------


    POTLOK:  cpu time    0.0200: real time    0.0387


--------------------------------------------------------------------------------------------------------




--------------------------------------------------------------------------------------------------------


    WAVPRE:  cpu time    0.0080: real time    0.0350
    FEWALD:  cpu time    0.0000: real time    0.0005
    GENKIN:  cpu time    0.0000: real time    0.0009
    ORTHCH:  cpu time    0.0000: real time    0.0011
     LOOP+:  cpu time    0.3960: real time    0.5834


--------------------------------------- Iteration      4(   1)  ---------------------------------------


    POTLOK:  cpu time    0.0120: real time    0.0184
    SETDIJ:  cpu time    0.0040: real time    0.0044
     EDDAV:  cpu time    0.0160: real time    0.0154
       DOS:  cpu time    0.0000: real time    0.0010
    CHARGE:  cpu time    0.0040: real time    0.0053
    MIXING:  cpu time    0.0040: real time    0.0030
    --------------------------------------------
      LOOP:  cpu time    0.0400: real time    0.0480

 eigenvalue-minimisations  :    48
 total energy-change (2. order) :-0.6772997E-03  (-0.6184018E-03)
 number of electron       8.0000004 magnetization 
 augmentation part       -0.4827735 magnetization 

 Broyden mixing:
  rms(total) = 0.50861E-02    rms(broyden)= 0.50860E-02
  rms(prec ) = 0.15574E-01
  weight for this iteration     100.00

 Free energy of the ion-electron system (eV)
  ---------------------------------------------------
  alpha Z        PSCENC =         4.62410916
  Ewald energy   TEWEN  =      -269.57029046
  -Hartree energ DENC   =        -2.05687481
  -exchange      EXHF   =         0.00000000
  -V(xc)+E(xc)   XCENC  =       -17.34110716
  PAW double counting   =        71.01715727      -35.94125802
  entropy T*S    EENTRO =        -0.05641896
  eigenvalues    EBANDS =        30.83621217
  atomic energy  EATOM  =       206.13125414
  Solvation  Ediel_sol  =         0.00000000
  ---------------------------------------------------
  free energy    TOTEN  =       -12.35721665 eV

  energy without entropy =      -12.30079770  energy(sigma->0) =      -12.32900717


--------------------------------------------------------------------------------------------------------




--------------------------------------- Iteration      4(   2)  ---------------------------------------


    POTLOK:  cpu time    0.0120: real time    0.0327
    SETDIJ:  cpu time    0.0040: real time    0.0045
     EDDAV:  cpu time    0.0080: real time    0.0098
       DOS:  cpu time    0.0040: real time    0.0010
    --------------------------------------------
      LOOP:  cpu time    0.0280: real time    0.0609

 eigenvalue-minimisations  :    24
 total energy-change (2. order) : 0.6509655E-04  (-0.9871116E-05)
 number of electron       8.0000004 magnetization 
 augmentation part       -0.4827735 magnetization 

 Free energy of the ion-electron system (eV)
  ---------------------------------------------------
  alpha Z        PSCENC =         4.62410916
  Ewald energy   TEWEN  =      -269.57029046
  -Hartree energ DENC   =        -2.05578243
  -exchange      EXHF   =         0.00000000
  -V(xc)+E(xc)   XCENC  =       -17.34026581
  PAW double counting   =        71.05267961      -35.97760155
  entropy T*S    EENTRO =        -0.05641896
  eigenvalues    EBANDS =        30.83516472
  atomic energy  EATOM  =       206.13125414
  Solvation  Ediel_sol  =         0.00000000
  ---------------------------------------------------
  free energy    TOTEN  =       -12.35715156 eV

  energy without entropy =      -12.30073260  energy(sigma->0) =      -12.32894208


--------------------------------------------------------------------------------------------------------




 average (electrostatic) potential at core
  the test charge radii are     0.9892
  (the norm of the test charge is              1.0000)
       1 -79.9681       2 -79.9681
 
 
 
 E-fermi :   9.8071     XC(G=0): -11.1076     alpha+bet :-16.4731


 k-point     1 :       0.2500    0.2500    0.2500
  band No.  band energies     occupation 
      1       3.1864      2.00000
      2       3.1864      2.00000
      3       4.3529      2.00000
      4       4.3529      2.00000
      5      14.0309      0.00000
      6      14.0309      0.00000
      7      16.1520      0.00000
      8      16.1520      0.00000

 k-point     2 :      -0.2500    0.2500    0.2500
  band No.  band energies     occupation 
      1      -2.7887      2.00000
      2       3.0940      2.00000
      3       4.2017      2.00000
      4       9.8071      1.00000
      5      14.5163      0.00000
      6      16.2851      0.00000
      7      17.3450      0.00000
      8      17.5096      0.00000

 k-point     3 :      -0.2500   -0.2500    0.2500
  band No.  band energies     occupation 
      1       0.5222      2.00000
      2       6.3690      2.00000
      3       6.5369      2.00000
      4       7.1714      2.00000
      5       7.1714      2.00000
      6      12.9794      0.00000
      7      12.9794      0.00000
      8      13.1785      0.00000


--------------------------------------------------------------------------------------------------------


 soft charge-density along one line, spin component           1
         0         1         2         3         4         5         6         7         8         9
 total charge-density along one line
 
 pseudopotential strength for first ion, spin component:           1
 17.998  -0.003   0.000  -0.000  -0.000  -0.000   0.000   0.000
 -0.003   0.005  -0.000   0.000   0.000   0.000  -0.000  -0.000
  0.000  -0.000   4.107   0.000   0.000  -0.006  -0.000  -0.000
 -0.000   0.000   0.000   4.108   0.000  -0.000  -0.006  -0.000
 -0.000   0.000   0.000   0.000   4.107  -0.000  -0.000  -0.006
 -0.000   0.000  -0.006  -0.000  -0.000   0.005   0.000   0.000
  0.000  -0.000  -0.000  -0.006  -0.000   0.000   0.005   0.000
  0.000  -0.000  -0.000  -0.000  -0.006   0.000   0.000   0.005
 total augmentation occupancy for first ion, spin component:           1
  1.662  -0.526  -0.000   0.000   0.000   0.000   0.000  -0.000
 -0.526   0.877  -0.000   0.000   0.000   0.000   0.000   0.000
 -0.000   0.000   0.901   0.000   0.000  -0.539   0.000  -0.000
  0.000   0.000   0.000   0.806  -0.000   0.000  -0.535   0.000
  0.000   0.000   0.000  -0.000   0.901  -0.000   0.000  -0.539
  0.000   0.000  -0.539   0.000  -0.000   0.405  -0.000   0.000
  0.000   0.000   0.000  -0.535   0.000  -0.000   0.387  -0.000
 -0.000   0.000  -0.000   0.000  -0.539   0.000  -0.000   0.405


------------------------ aborting loop because EDIFF is reached ----------------------------------------


    CHARGE:  cpu time    0.0040: real time    0.0053
    FORLOC:  cpu time    0.0000: real time    0.0004
    FORNL :  cpu time    0.0040: real time    0.0039
    STRESS:  cpu time    0.0160: real time    0.0148
    FORCOR:  cpu time    0.0080: real time    0.0088
    FORHAR:  cpu time    0.0000: real time    0.0020
    MIXING:  cpu time    0.0040: real time    0.0006
    OFIELD:  cpu time    0.0000: real time    0.0003

  FORCE on cell =-STRESS in cart. coord.  units (eV):
  Direction    XX          YY          ZZ          XY          YZ          ZX
  --------------------------------------------------------------------------------------
  Alpha Z     4.62411     4.62411     4.62411
  Ewald     -87.43193   -87.43193   -94.70665     0.00000    -0.00000     0.00000
  Hartree     0.78728     0.78728     0.47881    -0.00000    -0.00000    -0.00000
  E(xc)     -25.74272   -25.74272   -25.52436     0.00000     0.00000     0.00000
  Local     -15.58568   -15.58568    -5.46368    -0.00002    -0.00002    -0.00002
  n-local    78.86448    79.18767    75.41894    -0.00000    -0.00000    -0.00000
  augment   -12.35564   -12.35564   -12.11311     0.00002     0.00002     0.00002
  Kinetic    55.07902    57.71331    56.76390    -0.00000    -0.00000    -0.00000
  Fock        0.00000     0.00000     0.00000     0.00000     0.00000     0.00000
  -------------------------------------------------------------------------------------
  Total      -0.28233    -0.28233    -0.52205    -0.00000     0.00000    -0.00000
  in kB     -15.53379   -15.53379   -28.72328    -0.00000     0.00000    -0.00000
  external pressure =      -19.93 kB  Pullay stress =        0.00 kB


 VOLUME and BASIS-vectors are now :
 -----------------------------------------------------------------------------
  energy-cutoff  :      350.00
[...]
  Ewald energy   TEWEN  =      -269.57030378
  -Hartree energ DENC   =        -2.05300722
  -exchange      EXHF   =         0.00000000
  -V(xc)+E(xc)   XCENC  =       -17.33888319
  PAW double counting   =        71.10961074      -36.03589155
  entropy T*S    EENTRO =        -0.05641896
  eigenvalues    EBANDS =        30.83241033
  atomic energy  EATOM  =       206.13125414
  Solvation  Ediel_sol  =         0.00000000
  ---------------------------------------------------
  free energy    TOTEN  =       -12.35711957 eV

  energy without entropy =      -12.30070061  energy(sigma->0) =      -12.32891009


--------------------------------------------------------------------------------------------------------




 average (electrostatic) potential at core
  the test charge radii are     0.9892
  (the norm of the test charge is              1.0000)
       1 -79.9744       2 -79.9744
 
 
 
 E-fermi :   9.8072     XC(G=0): -11.1081     alpha+bet :-16.4731


 k-point     1 :       0.2500    0.2500    0.2500
  band No.  band energies     occupation 
      1       3.1874      2.00000
      2       3.1874      2.00000
      3       4.3507      2.00000
      4       4.3507      2.00000
      5      14.0312      0.00000
      6      14.0312      0.00000
      7      16.1516      0.00000
      8      16.1516      0.00000

 k-point     2 :      -0.2500    0.2500    0.2500
  band No.  band energies     occupation 
      1      -2.7891      2.00000
      2       3.0920      2.00000
      3       4.2031      2.00000
      4       9.8072      1.00000
      5      14.5139      0.00000
      6      16.2831      0.00000
      7      17.3475      0.00000
      8      17.5074      0.00000

 k-point     3 :      -0.2500   -0.2500    0.2500
  band No.  band energies     occupation 
      1       0.5222      2.00000
      2       6.3667      2.00000
      3       6.5340      2.00000
      4       7.1732      2.00000
      5       7.1732      2.00000
      6      12.9788      0.00000
      7      12.9788      0.00000
      8      13.1742      0.00000


--------------------------------------------------------------------------------------------------------


 soft charge-density along one line, spin component           1
         0         1         2         3         4         5         6         7         8         9
 total charge-density along one line
 
 pseudopotential strength for first ion, spin component:           1
 17.999  -0.003   0.000  -0.000  -0.000  -0.000   0.000   0.000
 -0.003   0.005  -0.000   0.000   0.000   0.000  -0.000  -0.000
  0.000  -0.000   4.107   0.000   0.000  -0.006  -0.000  -0.000
 -0.000   0.000   0.000   4.108   0.000  -0.000  -0.006  -0.000
 -0.000   0.000   0.000   0.000   4.107  -0.000  -0.000  -0.006
 -0.000   0.000  -0.006  -0.000  -0.000   0.005   0.000   0.000
  0.000  -0.000  -0.000  -0.006  -0.000   0.000   0.005   0.000
  0.000  -0.000  -0.000  -0.000  -0.006   0.000   0.000   0.005
 total augmentation occupancy for first ion, spin component:           1
  1.662  -0.526   0.000   0.000   0.000   0.000   0.000   0.000
 -0.526   0.878   0.000   0.000   0.000   0.000   0.000   0.000
  0.000   0.000   0.901   0.000   0.000  -0.538   0.000  -0.000
  0.000   0.000   0.000   0.806  -0.000   0.000  -0.537   0.000
  0.000   0.000   0.000  -0.000   0.901  -0.000   0.000  -0.538
 -0.000   0.000  -0.538   0.000  -0.000   0.404  -0.000   0.000
  0.000   0.000   0.000  -0.537   0.000  -0.000   0.389  -0.000
  0.000   0.000  -0.000   0.000  -0.538   0.000  -0.000   0.404


------------------------ aborting loop because EDIFF is reached ----------------------------------------


    CHARGE:  cpu time    0.0120: real time    0.0127
    FORLOC:  cpu time    0.0000: real time    0.0008
    FORNL :  cpu time    0.0120: real time    0.0089
    STRESS:  cpu time    0.0360: real time    0.0352
    FORCOR:  cpu time    0.0160: real time    0.0200
    FORHAR:  cpu time    0.0080: real time    0.0047
    MIXING:  cpu time    0.0000: real time    0.0012
    OFIELD:  cpu time    0.0000: real time    0.0003

  FORCE on cell =-STRESS in cart. coord.  units (eV):
  Direction    XX          YY          ZZ          XY          YZ          ZX
  --------------------------------------------------------------------------------------
  Alpha Z     4.62411     4.62411     4.62411
  Ewald     -87.43192   -87.43192   -94.70669    -0.00000     0.00000    -0.00000
  Hartree     0.78581     0.78581     0.48139    -0.00000    -0.00000    -0.00000
  E(xc)     -25.73908   -25.73908   -25.52493     0.00000     0.00000     0.00000
  Local     -15.56051   -15.56051    -5.51971    -0.00002    -0.00002    -0.00002
  n-local    78.85889    79.18454    75.45487    -0.00000    -0.00000    -0.00000
  augment   -12.35929   -12.35929   -12.11516     0.00002     0.00002     0.00002
  Kinetic    55.08443    57.71770    56.75929    -0.00000    -0.00000    -0.00000
  Fock        0.00000     0.00000     0.00000     0.00000     0.00000     0.00000
  -------------------------------------------------------------------------------------
  Total      -0.25810    -0.25810    -0.54684    -0.00000     0.00000    -0.00000
  in kB     -14.20059   -14.20059   -30.08727    -0.00000     0.00000    -0.00000
  external pressure =      -19.50 kB  Pullay stress =        0.00 kB


 VOLUME and BASIS-vectors are now :
 -----------------------------------------------------------------------------
  energy-cutoff  :      350.00
  volume of cell :       29.12
      direct lattice vectors                 reciprocal lattice vectors
    -2.336390700  2.336390700  1.333628111     0.000000000  0.214005303  0.374917112
     2.336390700 -2.336390700  1.333628111     0.214005303  0.000000000  0.374917112
     2.336390700  2.336390700 -1.333628111     0.214005303  0.214005303  0.000000000

  length of vectors
     3.563145653  3.563145653  3.563145653     0.431695623  0.431695623  0.302649202


 FORCES acting on ions
    electron-ion (+dipol)            ewald-force                    non-local-force                 convergence-correction
 -----------------------------------------------------------------------------------------------
   0.857E-07 -.857E-07 0.583E-14   -.636E-14 0.167E-14 -.733E-14   0.188E-17 -.349E-17 0.201E-17   -.566E-12 0.566E-12 0.124E-15
   -.857E-07 0.857E-07 0.102E-13   0.627E-14 -.198E-14 0.730E-14   -.206E-17 0.262E-17 0.310E-18   0.566E-12 -.566E-12 0.726E-16
 -----------------------------------------------------------------------------------------------
   -.180E-13 0.176E-14 0.160E-13   -.895E-16 -.312E-15 -.390E-16   -.177E-18 -.869E-18 0.232E-17   0.693E-16 -.324E-15 0.197E-15
 
 
 POSITION                                       TOTAL-FORCE (eV/Angst)
 -----------------------------------------------------------------------------------
      2.33639     -0.00000      0.66681        -0.000000     -0.000000      0.000000
      0.00000     -0.00000     -0.00000         0.000000      0.000000     -0.000000
 -----------------------------------------------------------------------------------
    total drift:                               -0.000000      0.000000      0.000000


--------------------------------------------------------------------------------------------------------



  FREE ENERGIE OF THE ION-ELECTRON SYSTEM (eV)
  ---------------------------------------------------
  free  energy   TOTEN  =       -12.35711957 eV

  energy  without entropy=      -12.30070061  energy(sigma->0) =      -12.32891009
 
 d Force = 0.0000000E+00[ 0.000E+00, 0.000E+00]  d Energy =-0.1537387E-08 0.154E-08
 d Force = 0.0000000E+00[ 0.000E+00, 0.000E+00]  d Ewald  =-0.1332184E-04 0.133E-04


--------------------------------------------------------------------------------------------------------


    POTLOK:  cpu time    0.0400: real time    0.0537


--------------------------------------------------------------------------------------------------------




--------------------------------------------------------------------------------------------------------


    WAVPRE:  cpu time    0.0080: real time    0.0340
    FEWALD:  cpu time    0.0040: real time    0.0007
    GENKIN:  cpu time    0.0000: real time    0.0023
    ORTHCH:  cpu time    0.0040: real time    0.0022
     LOOP+:  cpu time    0.3080: real time    0.4128


--------------------------------------- Iteration     15(   1)  ---------------------------------------


    POTLOK:  cpu time    0.0280: real time    0.0460
    SETDIJ:  cpu time    0.0080: real time    0.0088
     EDDAV:  cpu time    0.0200: real time    0.0216
       DOS:  cpu time    0.0040: real time    0.0014
    CHARGE:  cpu time    0.0120: real time    0.0131
    MIXING:  cpu time    0.0000: real time    0.0015
    --------------------------------------------
      LOOP:  cpu time    0.0720: real time    0.0933

 eigenvalue-minimisations  :    24
 total energy-change (2. order) : 0.8098198E-09  (-0.9613421E-12)
 number of electron       8.0000004 magnetization 
 augmentation part       -0.4828189 magnetization 

 Broyden mixing:
  rms(total) = 0.25207E-06    rms(broyden)= 0.23198E-06
  rms(prec ) = 0.71547E-06
  weight for this iteration     100.00

 Free energy of the ion-electron system (eV)
  ---------------------------------------------------
  alpha Z        PSCENC =         4.62410954
  Ewald energy   TEWEN  =      -269.57029712
  -Hartree energ DENC   =        -2.05300720
  -exchange      EXHF   =         0.00000000
  -V(xc)+E(xc)   XCENC  =       -17.33888373
  PAW double counting   =        71.10960679      -36.03588750
  entropy T*S    EENTRO =        -0.05641896
  eigenvalues    EBANDS =        30.83240447
  atomic energy  EATOM  =       206.13125414
  Solvation  Ediel_sol  =         0.00000000
  ---------------------------------------------------
  free energy    TOTEN  =       -12.35711957 eV

  energy without entropy =      -12.30070061  energy(sigma->0) =      -12.32891009


--------------------------------------------------------------------------------------------------------




--------------------------------------- Iteration     15(   2)  ---------------------------------------


    POTLOK:  cpu time    0.0280: real time    0.0367
    SETDIJ:  cpu time    0.0080: real time    0.0088
     EDDAV:  cpu time    0.0240: real time    0.0217
       DOS:  cpu time    0.0000: real time    0.0013
    --------------------------------------------
      LOOP:  cpu time    0.0600: real time    0.0683

 eigenvalue-minimisations  :    24
 total energy-change (2. order) : 0.1020993E-08  (-0.3552714E-13)
 number of electron       8.0000004 magnetization 
 augmentation part       -0.4828189 magnetization 

 Free energy of the ion-electron system (eV)
  ---------------------------------------------------
  alpha Z        PSCENC =         4.62410954
  Ewald energy   TEWEN  =      -269.57029712
  -Hartree energ DENC   =        -2.05300723
  -exchange      EXHF   =         0.00000000
  -V(xc)+E(xc)   XCENC  =       -17.33888377
  PAW double counting   =        71.10960526      -36.03588594
  entropy T*S    EENTRO =        -0.05641896
  eigenvalues    EBANDS =        30.83240450
  atomic energy  EATOM  =       206.13125414
  Solvation  Ediel_sol  =         0.00000000
  ---------------------------------------------------
  free energy    TOTEN  =       -12.35711956 eV

  energy without entropy =      -12.30070061  energy(sigma->0) =      -12.32891009


--------------------------------------------------------------------------------------------------------




 average (electrostatic) potential at core
  the test charge radii are     0.9892
  (the norm of the test charge is              1.0000)
       1 -79.9744       2 -79.9744
 
 
 
 E-fermi :   9.8072     XC(G=0): -11.1081     alpha+bet :-16.4731


 k-point     1 :       0.2500    0.2500    0.2500
  band No.  band energies     occupation 
      1       3.1874      2.00000
      2       3.1874      2.00000
      3       4.3507      2.00000
      4       4.3507      2.00000
      5      14.0312      0.00000
      6      14.0312      0.00000
      7      16.1516      0.00000
      8      16.1516      0.00000

 k-point     2 :      -0.2500    0.2500    0.2500
  band No.  band energies     occupation 
      1      -2.7891      2.00000
      2       3.0920      2.00000
      3       4.2031      2.00000
      4       9.8072      1.00000
      5      14.5139      0.00000
      6      16.2831      0.00000
      7      17.3475      0.00000
      8      17.5074      0.00000

 k-point     3 :      -0.2500   -0.2500    0.2500
  band No.  band energies     occupation 
      1       0.5222      2.00000
      2       6.3667      2.00000
      3       6.5340      2.00000
      4       7.1732      2.00000
      5       7.1732      2.00000
      6      12.9788      0.00000
      7      12.9788      0.00000
      8      13.1742      0.00000


--------------------------------------------------------------------------------------------------------


 soft charge-density along one line, spin component           1
         0         1         2         3         4         5         6         7         8         9
 total charge-density along one line
 
 pseudopotential strength for first ion, spin component:           1
 17.999  -0.003   0.000  -0.000  -0.000  -0.000   0.000   0.000
 -0.003   0.005  -0.000   0.000   0.000   0.000  -0.000  -0.000
  0.000  -0.000   4.107   0.000   0.000  -0.006  -0.000  -0.000
 -0.000   0.000   0.000   4.108   0.000  -0.000  -0.006  -0.000
 -0.000   0.000   0.000   0.000   4.107  -0.000  -0.000  -0.006
 -0.000   0.000  -0.006  -0.000  -0.000   0.005   0.000   0.000
  0.000  -0.000  -0.000  -0.006  -0.000   0.000   0.005   0.000
  0.000  -0.000  -0.000  -0.000  -0.006   0.000   0.000   0.005
 total augmentation occupancy for first ion, spin component:           1
  1.662  -0.526   0.000   0.000   0.000  -0.000   0.000   0.000
 -0.526   0.878   0.000   0.000   0.000   0.000   0.000  -0.000
  0.000   0.000   0.901   0.000   0.000  -0.538   0.000   0.000
  0.000   0.000   0.000   0.806  -0.000  -0.000  -0.537   0.000
  0.000   0.000   0.000  -0.000   0.901   0.000   0.000  -0.538
  0.000  -0.000  -0.538  -0.000   0.000   0.404   0.000   0.000
  0.000   0.000   0.000  -0.537   0.000   0.000   0.389  -0.000
  0.000  -0.000   0.000   0.000  -0.538   0.000  -0.000   0.404


------------------------ aborting loop because EDIFF is reached ----------------------------------------


    CHARGE:  cpu time    0.0120: real time    0.0133
    FORLOC:  cpu time    0.0000: real time    0.0009
    FORNL :  cpu time    0.0080: real time    0.0089
    STRESS:  cpu time    0.0320: real time    0.0355
    FORCOR:  cpu time    0.0200: real time    0.0200
    FORHAR:  cpu time    0.0080: real time    0.0049
    MIXING:  cpu time    0.0000: real time    0.0012
    OFIELD:  cpu time    0.0000: real time    0.0006

  FORCE on cell =-STRESS in cart. coord.  units (eV):
  Direction    XX          YY          ZZ          XY          YZ          ZX
  --------------------------------------------------------------------------------------
  Alpha Z     4.62411     4.62411     4.62411
  Ewald     -87.43192   -87.43192   -94.70667    -0.00000     0.00000    -0.00000
  Hartree     0.78581     0.78581     0.48139    -0.00000    -0.00000    -0.00000
  E(xc)     -25.73908   -25.73908   -25.52493     0.00000     0.00000     0.00000
  Local     -15.56050   -15.56050    -5.51972    -0.00002    -0.00002    -0.00002
  n-local    78.85889    79.18454    75.45486    -0.00000    -0.00000    -0.00000
  augment   -12.35929   -12.35929   -12.11516     0.00002     0.00002     0.00002
  Kinetic    55.08442    57.71769    56.75930    -0.00000    -0.00000    -0.00000
  Fock        0.00000     0.00000     0.00000     0.00000     0.00000     0.00000
  -------------------------------------------------------------------------------------
  Total      -0.25810    -0.25810    -0.54683    -0.00000     0.00000    -0.00000
  in kB     -14.20105   -14.20105   -30.08686    -0.00000     0.00000    -0.00000
  external pressure =      -19.50 kB  Pullay stress =        0.00 kB


 VOLUME and BASIS-vectors are now :
 -----------------------------------------------------------------------------
  energy-cutoff  :      350.00
  volume of cell :       29.12
      direct lattice vectors                 reciprocal lattice vectors
    -2.336390877  2.336390877  1.333628018     0.000000000  0.214005287  0.374917138
     2.336390877 -2.336390877  1.333628018     0.214005287  0.000000000  0.374917138
     2.336390877  2.336390877 -1.333628018     0.214005287  0.214005287  0.000000000

  length of vectors
     3.563145851  3.563145851  3.563145851     0.431695637  0.431695637  0.302649179


 FORCES acting on ions
    electron-ion (+dipol)            ewald-force                    non-local-force                 convergence-correction
 -----------------------------------------------------------------------------------------------
   0.857E-07 -.857E-07 0.333E-13   -.110E-13 0.546E-14 -.534E-14   -.278E-17 -.401E-17 0.715E-17   -.280E-12 0.279E-12 -.386E-16
   -.857E-07 0.857E-07 -.113E-13   0.110E-13 -.511E-14 0.444E-14   0.314E-17 0.431E-17 -.710E-17   0.280E-12 -.279E-12 0.943E-16
 -----------------------------------------------------------------------------------------------
   -.180E-13 -.238E-14 0.220E-13   0.190E-16 0.353E-15 -.909E-15   0.359E-18 0.301E-18 0.535E-19   -.104E-15 -.438E-16 0.557E-16
 
 
 POSITION                                       TOTAL-FORCE (eV/Angst)
 -----------------------------------------------------------------------------------
      2.33639     -0.00000      0.66681         0.000000      0.000000     -0.000000
      0.00000     -0.00000     -0.00000        -0.000000     -0.000000      0.000000
 -----------------------------------------------------------------------------------
    total drift:                               -0.000000     -0.000000      0.000000


--------------------------------------------------------------------------------------------------------



  FREE ENERGIE OF THE ION-ELECTRON SYSTEM (eV)
  ---------------------------------------------------
  free  energy   TOTEN  =       -12.35711956 eV

  energy  without entropy=      -12.30070061  energy(sigma->0) =      -12.32891009
 
 d Force = 0.0000000E+00[ 0.000E+00, 0.000E+00]  d Energy =-0.1808331E-08 0.181E-08
 d Force = 0.0000000E+00[ 0.000E+00, 0.000E+00]  d Ewald  =-0.6660922E-05 0.666E-05


--------------------------------------------------------------------------------------------------------


    POTLOK:  cpu time    0.0400: real time    0.0584


--------------------------------------------------------------------------------------------------------




--------------------------------------------------------------------------------------------------------


 writing wavefunctions
     LOOP+:  cpu time    0.3080: real time    0.4688
    4ORBIT:  cpu time    0.0000: real time    0.0000

 total amount of memory used by VASP MPI-rank0    30940. kBytes
=======================================================================

   base      :      30000. kBytes
   nonl-proj :        103. kBytes
   fftplans  :        247. kBytes
   grid      :        561. kBytes
   one-center:          6. kBytes
   wavefun   :         23. kBytes
 
  
  
 General timing and accounting informations for this job:
 ========================================================
  
                  Total CPU time used (sec):        9.020
                            User time (sec):        6.484
                          System time (sec):        2.536
                         Elapsed time (sec):       15.618
  
                   Maximum memory used (kb):       10160.
                   Average memory used (kb):           0.
  
                          Minor page faults:        38320
                          Major page faults:           16
                 Voluntary context switches:        54714
