 running on    8 total cores
 distrk:  each k-point on    8 cores,    1 groups
 distr:  one band on    1 cores,    8 groups
 using from now: INCAR     
 vasp.5.4.4.18Apr17-6-g9f103f2a35 (build Dec 09 2018 21:25:21) complex          
  
 POSCAR found type information on POSCAR  Si
 POSCAR found :  1 types and       2 ions
 scaLAPACK will be used

 ----------------------------------------------------------------------------- 
|                                                                             |
|           W    W    AA    RRRRR   N    N  II  N    N   GGGG   !!!           |
|           W    W   A  A   R    R  NN   N  II  NN   N  G    G  !!!           |
|           W    W  A    A  R    R  N N  N  II  N N  N  G       !!!           |
|           W WW W  AAAAAA  RRRRR   N  N N  II  N  N N  G  GGG   !            |
|           WW  WW  A    A  R   R   N   NN  II  N   NN  G    G                |
|           W    W  A    A  R    R  N    N  II  N    N   GGGG   !!!           |
|                                                                             |
|      For optimal performance we recommend to set                            |
|        NCORE= 4 - approx SQRT( number of cores)                             |
|      NCORE specifies how many cores store one orbital (NPAR=cpu/NCORE).     |
|      This setting can  greatly improve the performance of VASP for DFT.     |
|      The default,   NCORE=1            might be grossly inefficient         |
|      on modern multi-core architectures or massively parallel machines.     |
|      Do your own testing !!!!                                               |
|      Unfortunately you need to use the default for GW and RPA calculations. |
|      (for HF NCORE is supported but not extensively tested yet)             |
|                                                                             |
 ----------------------------------------------------------------------------- 

 LDA part: xc-table for Pade appr. of Perdew
 POSCAR, INCAR and KPOINTS ok, starting setup
 FFT: planning ...
 WAVECAR not read
 entering main loop
       N       E                     dE             d eps       ncg     rms          rms(c)
DAV:   1    -0.210704251329E+01   -0.21070E+01   -0.26061E+03    48   0.552E+02
DAV:   2    -0.119759877576E+02   -0.98689E+01   -0.98680E+01    72   0.602E+01
DAV:   3    -0.120550140259E+02   -0.79026E-01   -0.79026E-01    64   0.651E+00
DAV:   4    -0.120552728862E+02   -0.25886E-03   -0.25886E-03    72   0.375E-01
DAV:   5    -0.120552729078E+02   -0.21649E-07   -0.21100E-07    56   0.422E-03    0.139E+00
DAV:   6    -0.120442208116E+02    0.11052E-01   -0.44760E-03    64   0.429E-01    0.866E-01
DAV:   7    -0.120370449678E+02    0.71758E-02   -0.10878E-02    80   0.682E-01    0.437E-02
DAV:   8    -0.120370036281E+02    0.41340E-04   -0.12522E-04    56   0.803E-02
   1 F= -.12037004E+02 E0= -.12008794E+02  d E =-.120370E+02
 curvature:   0.00 expect dE= 0.000E+00 dE for cont linesearch  0.000E+00
 trial: gam= 0.00000 g(F)=  0.180E-47 g(S)=  0.000E+00 ort = 0.000E+00 (trialstep = 0.100E+01)
 search vector abs. value=  0.100E-09
 reached required accuracy - stopping structural energy minimisation
 writing wavefunctions
