unknown system                          
   1.00000000000000     
    -2.450000    2.450000    1.274000
     2.450000   -2.450000    1.274000
     2.450000    2.450000   -1.274000
   Si
     2
Direct
  0.250000  0.750000  0.500000
  0.000000  0.000000  0.000000
 
   36   36   36
 -.52537590769E+01 -.43256646360E+01 -.17758038544E+01 0.17733905723E+01 0.55162589936E+01
 0.87037555450E+01 0.10829609582E+02 0.11715133863E+02 0.11492356676E+02 0.10512841244E+02
 0.92151146013E+01 0.79089303469E+01 0.67113060126E+01 0.56901699519E+01 0.48757844533E+01
 0.42695474876E+01 0.38569388268E+01 0.36192162015E+01 0.35417844945E+01 0.36192156421E+01
 0.38569467606E+01 0.42695612856E+01 0.48757911682E+01 0.56901688859E+01 0.67113085665E+01
 0.79089374292E+01 0.92151156744E+01 0.10512835696E+02 0.11492354699E+02 0.11715136387E+02
 0.10829608478E+02 0.87037525685E+01 0.55162627559E+01 0.17733963458E+01 -.17758084548E+01
 -.43256751799E+01 -.43256751799E+01 -.48072292810E+01 -.34801478117E+01 -.68154543196E+00
 0.29107511622E+01 0.64973399171E+01 0.93870407991E+01 0.11157828328E+02 0.11714488919E+02
 0.11251416744E+02 0.10150229921E+02 0.88372193040E+01 0.75556931140E+01 0.64036390835E+01
 0.54387730920E+01 0.46828130658E+01 0.41318471040E+01 0.37692915393E+01 0.35767872155E+01
 0.35416663292E+01 0.36611080027E+01 0.39429680189E+01 0.44032634177E+01 0.50604534047E+01
 0.59263554352E+01 0.69939456569E+01 0.82249180984E+01 0.95428517677E+01 0.10806918247E+02
 0.11659743694E+02 0.11672533269E+02 0.10536036629E+02 0.81846816187E+01 0.48727400966E+01
 0.11686364659E+01 -.21551438557E+01 -.17758084548E+01 -.34801558148E+01 -.35179136230E+01
 -.18845327173E+01 0.10025083609E+01 0.44466294528E+01 0.76928317499E+01 0.10136644663E+02
 0.11454881029E+02 0.11636724906E+02 0.10929611857E+02 0.97297546973E+01 0.84214066988E+01
 0.71775075129E+01 0.60819498806E+01 0.51811234295E+01 0.44882543756E+01 0.39947936903E+01
 0.36828862983E+01 0.35352024163E+01 0.35413632761E+01 0.37011511169E+01 0.40244970249E+01
 0.45282963807E+01 0.52301212647E+01 0.61386090048E+01 0.72411551892E+01 0.84924448443E+01
 0.98097254113E+01 0.11027570386E+02 0.11765738560E+02 0.11620836446E+02 0.10334098139E+02
 0.79048501286E+01 0.46486718019E+01 0.11686364659E+01 0.17733963458E+01 -.68154806667E+00
 -.18845364998E+01 -.15296624113E+01 0.28366596503E+00 0.30875376592E+01 0.62043445757E+01
 0.89566292928E+01 0.10847131023E+02 0.11657570664E+02 0.11455718770E+02 0.10528371077E+02
 0.92681580934E+01 0.79810355747E+01 0.67872054785E+01 0.57572692893E+01 0.49259220836E+01
 0.42985089417E+01 0.38627915152E+01 0.36004910782E+01 0.34958667747E+01 0.35410186958E+01
 0.37381487491E+01 0.40988104703E+01 0.46402110519E+01 0.53785129721E+01 0.63189345668E+01
 0.74437163295E+01 0.87019544694E+01 0.10006771400E+02 0.11173803760E+02 0.11823026498E+02
 0.11587413413E+02 0.10262263507E+02 0.79048501286E+01 0.48727400966E+01 0.55162627559E+01
 0.29107540540E+01 0.10025081978E+01 0.28366672439E+00 0.94030952656E+00 0.27900230601E+01
 0.53481314019E+01 0.79903538646E+01 0.10141504590E+02 0.11422160046E+02 0.11716584318E+02
 0.11159536395E+02 0.10060405519E+02 0.87813699681E+01 0.75301317107E+01 0.63975539430E+01
 0.54400996364E+01 0.46811858917E+01 0.41193593638E+01 0.37398042799E+01 0.35246312014E+01
 0.34601006569E+01 0.35407955193E+01 0.37710102743E+01 0.41634132217E+01 0.47349877572E+01
 0.55000832536E+01 0.64604932773E+01 0.75940466680E+01 0.88459379802E+01 0.10127400125E+02
 0.11246461074E+02 0.11840978279E+02 0.11587413413E+02 0.10334098139E+02 0.81846816187E+01
 0.87037525685E+01 0.64973395760E+01 0.44466291877E+01 0.30875396479E+01 0.27900273731E+01
 0.36324201979E+01 0.53768096883E+01 0.75546893219E+01 0.96222137546E+01 0.11120785473E+02
 0.11789515839E+02 0.11605496055E+02 0.10754515486E+02 0.95501509589E+01 0.82841021815E+01
 0.70828989671E+01 0.60207142780E+01 0.51399721871E+01 0.44539373974E+01 0.39557647317E+01
 0.36292098760E+01 0.34574677961E+01 0.34290306685E+01 0.35407997930E+01 0.37987413436E+01
 0.42161200457E+01 0.48092150379E+01 0.55902899381E+01 0.65579275181E+01 0.76865358600E+01
 0.89192396540E+01 0.10167987495E+02 0.11246461074E+02 0.11823026498E+02 0.11620836446E+02
 0.10536036629E+02 0.10829608478E+02 0.93870388070E+01 0.76928279591E+01 0.62043417674E+01
 0.53481346243E+01 0.53768157768E+01 0.62817835910E+01 0.77994383775E+01 0.95054441283E+01
 0.10953761803E+02 0.11806010514E+02 0.11911840578E+02 0.11325810386E+02 0.10266059418E+02
 0.90252731926E+01 0.77919475229E+01 0.66531992389E+01 0.56677956446E+01 0.48651521830E+01
 0.42500365885E+01 0.38117620143E+01 0.35337218995E+01 0.34007143081E+01 0.34035084272E+01
 0.35410309940E+01 0.38204518483E+01 0.42551298866E+01 0.48602263893E+01 0.56457808806E+01
 0.66075726732E+01 0.77177503994E+01 0.89192396540E+01 0.10127400125E+02 0.11173803760E+02
 0.11765738560E+02 0.11672533269E+02 0.11715136387E+02 0.11157831134E+02 0.10136644113E+02
 0.89566237435E+01 0.79903497100E+01 0.75546926884E+01 0.77994443854E+01 0.86547489458E+01
 0.98590462984E+01 0.11052243396E+02 0.11893078947E+02 0.12157584185E+02 0.11791275333E+02
 0.10907095284E+02 0.97357190083E+01 0.85047152429E+01 0.73208073047E+01 0.62540260743E+01
 0.53485301371E+01 0.46224991726E+01 0.40741485346E+01 0.36904683158E+01 0.34553827481E+01
 0.33556111540E+01 0.33840856121E+01 0.35413822718E+01 0.38353918667E+01 0.42790944710E+01
 0.48861955854E+01 0.56645073549E+01 0.66075726732E+01 0.76865358600E+01 0.88459379802E+01
 0.10006771400E+02 0.11027570386E+02 0.11659743694E+02 0.11492354699E+02 0.11714491620E+02
 0.11454886556E+02 0.10847132117E+02 0.10141499240E+02 0.96222095768E+01 0.95054467885E+01
 0.98590508801E+01 0.10578130058E+02 0.11425372990E+02 0.12115834011E+02 0.12410597614E+02
 0.12187041180E+02 0.11467430433E+02 0.10402181628E+02 0.92044702079E+01 0.80071066211E+01
 0.68861108792E+01 0.58970201702E+01 0.50710807955E+01 0.44174627410E+01 0.39298173356E+01
 0.35941613864E+01 0.33956209851E+01 0.33229641800E+01 0.33710526644E+01 0.35416903900E+01
 0.38430092972E+01 0.42871772608E+01 0.48861955854E+01 0.56457808806E+01 0.65579275181E+01
 0.75940466680E+01 0.87019544694E+01 0.98097254113E+01 0.10806918247E+02 0.10512835696E+02
 0.11251411910E+02 0.11636726922E+02 0.11657577180E+02 0.11422162554E+02 0.11120781806E+02
 0.10953758635E+02 0.11052244957E+02 0.11425375570E+02 0.11956292485E+02 0.12446742836E+02
 0.12689105113E+02 0.12536991974E+02 0.11951208088E+02 0.11009323802E+02 0.98762705088E+01
 0.86968018375E+01 0.75510334677E+01 0.65019826620E+01 0.55920889576E+01 0.48419785709E+01
 0.42541767303E+01 0.38196046444E+01 0.35244064173E+01 0.33553534917E+01 0.33032326159E+01
 0.33645226154E+01 0.35418119626E+01 0.38430092972E+01 0.42790944710E+01 0.48602263893E+01
 0.55902899381E+01 0.64604932773E+01 0.74437163295E+01 0.84924448443E+01 0.95428517677E+01
 0.92151156744E+01 0.10150224170E+02 0.10929605668E+02 0.11455719506E+02 0.11716590133E+02
 0.11789519125E+02 0.11806009136E+02 0.11893077300E+02 0.12115834516E+02 0.12446743533E+02
 0.12774538375E+02 0.12947177032E+02 0.12829364449E+02 0.12352363598E+02 0.11539867735E+02
 0.10502696789E+02 0.93738688837E+01 0.82351855350E+01 0.71536700507E+01 0.61805287521E+01
 0.53471839407E+01 0.46661704953E+01 0.41356093387E+01 0.37452505003E+01 0.34821952363E+01
 0.33351036539E+01 0.32966347542E+01 0.33645226154E+01 0.35416903900E+01 0.38353918667E+01
 0.42551298866E+01 0.48092150379E+01 0.55000832536E+01 0.63189345668E+01 0.72411551892E+01
 0.82249180984E+01 0.79089374292E+01 0.88372224242E+01 0.97297504816E+01 0.10528365176E+02
 0.11159535749E+02 0.11605499988E+02 0.11911843819E+02 0.12157584857E+02 0.12410597459E+02
 0.12689104863E+02 0.12947176381E+02 0.13090312051E+02 0.13013100871E+02 0.12642395849E+02
 0.11969354320E+02 0.11059353441E+02 0.10017842307E+02 0.89221288851E+01 0.78402187835E+01
 0.68296403092E+01 0.59313836680E+01 0.51682551108E+01 0.45471475833E+01 0.40637285952E+01
 0.37078214718E+01 0.34680680206E+01 0.33351036539E+01 0.33032326159E+01 0.33710526644E+01
 0.35413822718E+01 0.38204518483E+01 0.42161200457E+01 0.47349877572E+01 0.53785129721E+01
 0.61386090048E+01 0.69939456569E+01 0.67113085665E+01 0.75556997174E+01 0.84214111573E+01
 0.92681564119E+01 0.10060401216E+02 0.10754513820E+02 0.11325811990E+02 0.11791277834E+02
 0.12187043161E+02 0.12536992897E+02 0.12829363795E+02 0.13013099529E+02 0.13015577614E+02
 0.12773234088E+02 0.12261692306E+02 0.11513264350E+02 0.10600623744E+02 0.95892905841E+01
 0.85450470501E+01 0.75290758563E+01 0.65903288727E+01 0.57615643947E+01 0.50593523661E+01
 0.44871085144E+01 0.40396484916E+01 0.37078214718E+01 0.34821952363E+01 0.33553534917E+01
 0.33229641800E+01 0.33840856121E+01 0.35410309940E+01 0.37987413436E+01 0.41634132217E+01
 0.46402110519E+01 0.52301212647E+01 0.59263554352E+01 0.56901688859E+01 0.64036393570E+01
 0.71775120491E+01 0.79810402501E+01 0.87813708670E+01 0.95501489163E+01 0.10266057328E+02
 0.10907094804E+02 0.11467431854E+02 0.11951210527E+02 0.12352365008E+02 0.12642395068E+02
 0.12773232646E+02 0.12694229567E+02 0.12375375806E+02 0.11825979373E+02 0.11086296186E+02
 0.10205738493E+02 0.92438437247E+01 0.82619635760E+01 0.73146580906E+01 0.64436730130E+01
 0.56755674729E+01 0.50228000223E+01 0.44871085144E+01 0.40637285952E+01 0.37452505003E+01
 0.35244064173E+01 0.33956209851E+01 0.33556111540E+01 0.34035084272E+01 0.35407997930E+01
 0.37710102743E+01 0.40988104703E+01 0.45282963807E+01 0.50604534047E+01 0.48757911682E+01
 0.54387718688E+01 0.60819479537E+01 0.67872070725E+01 0.75301354563E+01 0.82841049409E+01
 0.90252733431E+01 0.97357170419E+01 0.10402179765E+02 0.11009324215E+02 0.11539869943E+02
 0.11969355639E+02 0.12261691573E+02 0.12375374703E+02 0.12278183473E+02 0.11960832681E+02
 0.11435064853E+02 0.10733009986E+02 0.99030878887E+01 0.90021383766E+01 0.80866886656E+01
 0.72053913206E+01 0.63942861131E+01 0.56755674729E+01 0.50593523661E+01 0.45471475833E+01
 0.41356093387E+01 0.38196046444E+01 0.35941613864E+01 0.34553827481E+01 0.34007143081E+01
 0.34290306685E+01 0.35407955193E+01 0.37381487491E+01 0.40244970249E+01 0.44032634177E+01
 0.42695612856E+01 0.46828194360E+01 0.51811224441E+01 0.57572658245E+01 0.63975525676E+01
 0.70829010195E+01 0.77919510755E+01 0.85047169438E+01 0.92044686852E+01 0.98762681190E+01
 0.10502696540E+02 0.11059354976E+02 0.11513265134E+02 0.11825978799E+02 0.11960832194E+02
 0.11891756118E+02 0.11610449582E+02 0.11129629449E+02 0.10481665540E+02 0.97132894499E+01
 0.88778967306E+01 0.80273711816E+01 0.72053913206E+01 0.64436730130E+01 0.57615643947E+01
 0.51682551108E+01 0.46661704953E+01 0.42541767303E+01 0.39298173356E+01 0.36904683158E+01
 0.35337218995E+01 0.34574677961E+01 0.34601006569E+01 0.35410186958E+01 0.37011511169E+01
 0.39429680189E+01 0.38569467606E+01 0.41318550788E+01 0.44882588732E+01 0.49259214422E+01
 0.54400954957E+01 0.60207106326E+01 0.66531994557E+01 0.73208106614E+01 0.80071089579E+01
 0.86968008262E+01 0.93738667214E+01 0.10017841802E+02 0.10600624376E+02 0.11086296185E+02
 0.11435064509E+02 0.11610449813E+02 0.11587346010E+02 0.11358262340E+02 0.10935865664E+02
 0.10351262923E+02 0.96486644164E+01 0.88778967306E+01 0.80866886656E+01 0.73146580906E+01
 0.65903288727E+01 0.59313836680E+01 0.53471839407E+01 0.48419785709E+01 0.44174627410E+01
 0.40741485346E+01 0.38117620143E+01 0.36292098760E+01 0.35246312014E+01 0.34958667747E+01
 0.35413632761E+01 0.36611080027E+01 0.36192156421E+01 0.37692900815E+01 0.39947940418E+01
 0.42985103686E+01 0.46811853536E+01 0.51399681197E+01 0.56677908678E+01 0.62540249037E+01
 0.68861133925E+01 0.75510355766E+01 0.82351849460E+01 0.89221274511E+01 0.95892901160E+01
 0.10205738159E+02 0.10733009159E+02 0.11129629356E+02 0.11358263203E+02 0.11393308507E+02
 0.11226591846E+02 0.10869532428E+02 0.10351262923E+02 0.97132894499E+01 0.90021383766E+01
 0.82619635760E+01 0.75290758563E+01 0.68296403092E+01 0.61805287521E+01 0.55920889576E+01
 0.50710807955E+01 0.46224991726E+01 0.42500365885E+01 0.39557647317E+01 0.37398042799E+01
 0.36004910782E+01 0.35352024163E+01 0.35416663292E+01 0.35417844945E+01 0.35767797096E+01
 0.36828759903E+01 0.38627843902E+01 0.41193573029E+01 0.44539366037E+01 0.48651487205E+01
 0.53485254672E+01 0.58970183970E+01 0.65019840817E+01 0.71536713482E+01 0.78402184899E+01
 0.85450465468E+01 0.92438434143E+01 0.99030866797E+01 0.10481664036E+02 0.10935865769E+02
 0.11226593079E+02 0.11326734176E+02 0.11226591846E+02 0.10935865664E+02 0.10481665540E+02
 0.99030878887E+01 0.92438437247E+01 0.85450470501E+01 0.78402187835E+01 0.71536700507E+01
 0.65019826620E+01 0.58970201702E+01 0.53485301371E+01 0.48651521830E+01 0.44539373974E+01
 0.41193593638E+01 0.38627915152E+01 0.36828862983E+01 0.35767872155E+01 0.36192162015E+01
 0.35416614075E+01 0.35351897352E+01 0.36004745936E+01 0.37397917952E+01 0.39557598573E+01
 0.42500354232E+01 0.46224966891E+01 0.50710772723E+01 0.55920873687E+01 0.61805291344E+01
 0.68296405753E+01 0.75290757606E+01 0.82619639372E+01 0.90021382133E+01 0.97132876219E+01
 0.10351261038E+02 0.10869532609E+02 0.11226593079E+02 0.11393308507E+02 0.11358262340E+02
 0.11129629449E+02 0.10733009986E+02 0.10205738493E+02 0.95892905841E+01 0.89221288851E+01
 0.82351855350E+01 0.75510334677E+01 0.68861108792E+01 0.62540260743E+01 0.56677956446E+01
 0.51399721871E+01 0.46811858917E+01 0.42985089417E+01 0.39947936903E+01 0.37692915393E+01
 0.38569388268E+01 0.36611013620E+01 0.35413543980E+01 0.34958517660E+01 0.35246126756E+01
 0.36291956192E+01 0.38117560415E+01 0.40741473483E+01 0.44174615336E+01 0.48419768329E+01
 0.53471830593E+01 0.59313832349E+01 0.65903282049E+01 0.73146581271E+01 0.80866896252E+01
 0.88778966462E+01 0.96486623637E+01 0.10351261038E+02 0.10935865769E+02 0.11358263203E+02
 0.11587346010E+02 0.11610449582E+02 0.11435064853E+02 0.11086296186E+02 0.10600623744E+02
 0.10017842307E+02 0.93738688837E+01 0.86968018375E+01 0.80071066211E+01 0.73208073047E+01
 0.66531992389E+01 0.60207142780E+01 0.54400996364E+01 0.49259220836E+01 0.44882543756E+01
 0.41318471040E+01 0.42695474876E+01 0.39429525210E+01 0.37011388352E+01 0.35410078301E+01
 0.34600867393E+01 0.34574518524E+01 0.35337099748E+01 0.36904634954E+01 0.39298168411E+01
 0.42541769960E+01 0.46661706883E+01 0.51682550852E+01 0.57615634226E+01 0.64436717176E+01
 0.72053914278E+01 0.80273723538E+01 0.88778966462E+01 0.97132876219E+01 0.10481664036E+02
 0.11129629356E+02 0.11610449813E+02 0.11891756118E+02 0.11960832681E+02 0.11825979373E+02
 0.11513264350E+02 0.11059353441E+02 0.10502696789E+02 0.98762705088E+01 0.92044702079E+01
 0.85047152429E+01 0.77919475229E+01 0.70828989671E+01 0.63975539430E+01 0.57572692893E+01
 0.51811234295E+01 0.46828130658E+01 0.48757844533E+01 0.44032470637E+01 0.40244778526E+01
 0.37381341109E+01 0.35407854877E+01 0.34290212202E+01 0.34007049475E+01 0.34553765911E+01
 0.35941596733E+01 0.38196055129E+01 0.41356110509E+01 0.45471493777E+01 0.50593530027E+01
 0.56755662370E+01 0.63942845990E+01 0.72053914278E+01 0.80866896252E+01 0.90021382133E+01
 0.99030866797E+01 0.10733009159E+02 0.11435064509E+02 0.11960832194E+02 0.12278183473E+02
 0.12375375806E+02 0.12261692306E+02 0.11969354320E+02 0.11539867735E+02 0.11009323802E+02
 0.10402181628E+02 0.97357190083E+01 0.90252731926E+01 0.82841021815E+01 0.75301317107E+01
 0.67872054785E+01 0.60819498806E+01 0.54387730920E+01 0.56901699519E+01 0.50604478087E+01
 0.45282814050E+01 0.40987926902E+01 0.37709976022E+01 0.35407937022E+01 0.34035060340E+01
 0.33556107285E+01 0.33956222968E+01 0.35244086515E+01 0.37452529084E+01 0.40637313904E+01
 0.44871112102E+01 0.50228009048E+01 0.56755662370E+01 0.64436717176E+01 0.73146581271E+01
 0.82619639372E+01 0.92438434143E+01 0.10205738159E+02 0.11086296185E+02 0.11825978799E+02
 0.12375374703E+02 0.12694229567E+02 0.12773234088E+02 0.12642395849E+02 0.12352363598E+02
 0.11951208088E+02 0.11467430433E+02 0.10907095284E+02 0.10266059418E+02 0.95501509589E+01
 0.87813699681E+01 0.79810355747E+01 0.71775075129E+01 0.64036390835E+01 0.67113060126E+01
 0.59263559428E+01 0.52301179341E+01 0.46402011164E+01 0.41634017430E+01 0.37987347320E+01
 0.35410312609E+01 0.33840913065E+01 0.33229727217E+01 0.33553616611E+01 0.34822007273E+01
 0.37078248984E+01 0.40396516908E+01 0.44871112102E+01 0.50593530027E+01 0.57615634226E+01
 0.65903282049E+01 0.75290757606E+01 0.85450465468E+01 0.95892901160E+01 0.10600624376E+02
 0.11513265134E+02 0.12261691573E+02 0.12773232646E+02 0.13015577614E+02 0.13013100871E+02
 0.12829364449E+02 0.12536991974E+02 0.12187041180E+02 0.11791275333E+02 0.11325810386E+02
 0.10754515486E+02 0.10060405519E+02 0.92681580934E+01 0.84214066988E+01 0.75556931140E+01
 0.79089303469E+01 0.69939415315E+01 0.61386088333E+01 0.53785126069E+01 0.47349853666E+01
 0.42161181625E+01 0.38204536961E+01 0.35413896040E+01 0.33710654445E+01 0.33032477562E+01
 0.33351159040E+01 0.34680747681E+01 0.37078248984E+01 0.40637313904E+01 0.45471493777E+01
 0.51682550852E+01 0.59313832349E+01 0.68296405753E+01 0.78402184899E+01 0.89221274511E+01
 0.10017841802E+02 0.11059354976E+02 0.11969355639E+02 0.12642395068E+02 0.13013099529E+02
 0.13090312051E+02 0.12947177032E+02 0.12689105113E+02 0.12410597614E+02 0.12157584185E+02
 0.11911840578E+02 0.11605496055E+02 0.11159536395E+02 0.10528371077E+02 0.97297546973E+01
 0.88372193040E+01 0.92151146013E+01 0.82249124376E+01 0.72411508217E+01 0.63189339542E+01
 0.55000860385E+01 0.48092209097E+01 0.42551381723E+01 0.38354018303E+01 0.35417032543E+01
 0.33645395347E+01 0.32966523176E+01 0.33351159040E+01 0.34822007273E+01 0.37452529084E+01
 0.41356110509E+01 0.46661706883E+01 0.53471830593E+01 0.61805291344E+01 0.71536713482E+01
 0.82351849460E+01 0.93738667214E+01 0.10502696540E+02 0.11539869943E+02 0.12352365008E+02
 0.12829363795E+02 0.12947176381E+02 0.12774538375E+02 0.12446742836E+02 0.12115834011E+02
 0.11893078947E+02 0.11806010514E+02 0.11789515839E+02 0.11716584318E+02 0.11455718770E+02
 0.10929611857E+02 0.10150229921E+02 0.10512841244E+02 0.95428528578E+01 0.84924422435E+01
 0.74437131316E+01 0.64604926386E+01 0.55902955148E+01 0.48602392424E+01 0.42791104608E+01
 0.38430242101E+01 0.35418269199E+01 0.33645395347E+01 0.33032477562E+01 0.33553616611E+01
 0.35244086515E+01 0.38196055129E+01 0.42541769960E+01 0.48419768329E+01 0.55920873687E+01
 0.65019840817E+01 0.75510355766E+01 0.86968008262E+01 0.98762681190E+01 0.11009324215E+02
 0.11951210527E+02 0.12536992897E+02 0.12689104863E+02 0.12446743533E+02 0.11956292485E+02
 0.11425372990E+02 0.11052243396E+02 0.10953761803E+02 0.11120785473E+02 0.11422160046E+02
 0.11657570664E+02 0.11636724906E+02 0.11251416744E+02 0.11492356676E+02 0.10806921717E+02
 0.98097282776E+01 0.87019557465E+01 0.75940454737E+01 0.65579271502E+01 0.56457883830E+01
 0.48862124233E+01 0.42871961169E+01 0.38430242101E+01 0.35417032543E+01 0.33710654445E+01
 0.33229727217E+01 0.33956222968E+01 0.35941596733E+01 0.39298168411E+01 0.44174615336E+01
 0.50710772723E+01 0.58970183970E+01 0.68861133925E+01 0.80071089579E+01 0.92044686852E+01
 0.10402179765E+02 0.11467431854E+02 0.12187043161E+02 0.12410597459E+02 0.12115834516E+02
 0.11425375570E+02 0.10578130058E+02 0.98590462984E+01 0.95054441283E+01 0.96222137546E+01
 0.10141504590E+02 0.10847131023E+02 0.11454881029E+02 0.11714488919E+02 0.11715133863E+02
 0.11659741921E+02 0.11027570528E+02 0.10006775426E+02 0.88459428031E+01 0.76865365021E+01
 0.66075725660E+01 0.56645155448E+01 0.48862124233E+01 0.42791104608E+01 0.38354018303E+01
 0.35413896040E+01 0.33840913065E+01 0.33556107285E+01 0.34553765911E+01 0.36904634954E+01
 0.40741473483E+01 0.46224966891E+01 0.53485254672E+01 0.62540249037E+01 0.73208106614E+01
 0.85047169438E+01 0.97357170419E+01 0.10907094804E+02 0.11791277834E+02 0.12157584857E+02
 0.11893077300E+02 0.11052244957E+02 0.98590508801E+01 0.86547489458E+01 0.77994383775E+01
 0.75546893219E+01 0.79903538646E+01 0.89566292928E+01 0.10136644663E+02 0.11157828328E+02
 0.10829609582E+02 0.11672531653E+02 0.11765733063E+02 0.11173800530E+02 0.10127404734E+02
 0.89192465860E+01 0.77177517791E+01 0.66075725660E+01 0.56457883830E+01 0.48602392424E+01
 0.42551381723E+01 0.38204536961E+01 0.35410312609E+01 0.34035060340E+01 0.34007049475E+01
 0.35337099748E+01 0.38117560415E+01 0.42500354232E+01 0.48651487205E+01 0.56677908678E+01
 0.66531994557E+01 0.77919510755E+01 0.90252733431E+01 0.10266057328E+02 0.11325811990E+02
 0.11911843819E+02 0.11806009136E+02 0.10953758635E+02 0.95054467885E+01 0.77994443854E+01
 0.62817835910E+01 0.53768096883E+01 0.53481314019E+01 0.62043445757E+01 0.76928317499E+01
 0.93870407991E+01 0.87037555450E+01 0.10536041818E+02 0.11620835982E+02 0.11823018274E+02
 0.11246455738E+02 0.10167992273E+02 0.89192465860E+01 0.76865365021E+01 0.65579271502E+01
 0.55902955148E+01 0.48092209097E+01 0.42161181625E+01 0.37987347320E+01 0.35407937022E+01
 0.34290212202E+01 0.34574518524E+01 0.36291956192E+01 0.39557598573E+01 0.44539366037E+01
 0.51399681197E+01 0.60207106326E+01 0.70829010195E+01 0.82841049409E+01 0.95501489163E+01
 0.10754513820E+02 0.11605499988E+02 0.11789519125E+02 0.11120781806E+02 0.96222095768E+01
 0.75546926884E+01 0.53768157768E+01 0.36324201979E+01 0.27900230601E+01 0.30875376592E+01
 0.44466294528E+01 0.64973399171E+01 0.55162589936E+01 0.81846851076E+01 0.10334106412E+02
 0.11587413733E+02 0.11840969056E+02 0.11246455738E+02 0.10127404734E+02 0.88459428031E+01
 0.75940454737E+01 0.64604926386E+01 0.55000860385E+01 0.47349853666E+01 0.41634017430E+01
 0.37709976022E+01 0.35407854877E+01 0.34600867393E+01 0.35246126756E+01 0.37397917952E+01
 0.41193573029E+01 0.46811853536E+01 0.54400954957E+01 0.63975525676E+01 0.75301354563E+01
 0.87813708670E+01 0.10060401216E+02 0.11159535749E+02 0.11716590133E+02 0.11422162554E+02
 0.10141499240E+02 0.79903497100E+01 0.53481346243E+01 0.27900273731E+01 0.94030952656E+00
 0.28366596503E+00 0.10025083609E+01 0.29107511622E+01 0.17733905723E+01 0.48727330241E+01
 0.79048538042E+01 0.10262272927E+02 0.11587413733E+02 0.11823018274E+02 0.11173800530E+02
 0.10006775426E+02 0.87019557465E+01 0.74437131316E+01 0.63189339542E+01 0.53785126069E+01
 0.46402011164E+01 0.40987926902E+01 0.37381341109E+01 0.35410078301E+01 0.34958517660E+01
 0.36004745936E+01 0.38627843902E+01 0.42985103686E+01 0.49259214422E+01 0.57572658245E+01
 0.67872070725E+01 0.79810402501E+01 0.92681564119E+01 0.10528365176E+02 0.11455719506E+02
 0.11657577180E+02 0.10847132117E+02 0.89566237435E+01 0.62043417674E+01 0.30875396479E+01
 0.28366672439E+00 -.15296624113E+01 -.18845327173E+01 -.68154543196E+00 -.17758038544E+01
 0.11686289746E+01 0.46486634618E+01 0.79048538042E+01 0.10334106412E+02 0.11620835982E+02
 0.11765733063E+02 0.11027570528E+02 0.98097282776E+01 0.84924422435E+01 0.72411508217E+01
 0.61386088333E+01 0.52301179341E+01 0.45282814050E+01 0.40244778526E+01 0.37011388352E+01
 0.35413543980E+01 0.35351897352E+01 0.36828759903E+01 0.39947940418E+01 0.44882588732E+01
 0.51811224441E+01 0.60819479537E+01 0.71775120491E+01 0.84214111573E+01 0.97297504816E+01
 0.10929605668E+02 0.11636726922E+02 0.11454886556E+02 0.10136644113E+02 0.76928279591E+01
 0.44466291877E+01 0.10025081978E+01 -.18845364998E+01 -.35179136230E+01 -.34801478117E+01
 -.43256646360E+01 -.21551385069E+01 0.11686289746E+01 0.48727330241E+01 0.81846851076E+01
 0.10536041818E+02 0.11672531653E+02 0.11659741921E+02 0.10806921717E+02 0.95428528578E+01
 0.82249124376E+01 0.69939415315E+01 0.59263559428E+01 0.50604478087E+01 0.44032470637E+01
 0.39429525210E+01 0.36611013620E+01 0.35416614075E+01 0.35767797096E+01 0.37692900815E+01
 0.41318550788E+01 0.46828194360E+01 0.54387718688E+01 0.64036393570E+01 0.75556997174E+01
 0.88372224242E+01 0.10150224170E+02 0.11251411910E+02 0.11714491620E+02 0.11157831134E+02
 0.93870388070E+01 0.64973395760E+01 0.29107540540E+01 -.68154806667E+00 -.34801558148E+01
 -.48072292810E+01 -.43256725481E+01 -.36381214287E+01 -.13740112894E+01 0.19107348704E+01
 0.54592902334E+01 0.85416318930E+01 0.10641638185E+02 0.11552374191E+02 0.11372727132E+02
 0.10427425321E+02 0.91417193578E+01 0.78353684776E+01 0.66306099519E+01 0.55976713092E+01
 0.47689892582E+01 0.41472117412E+01 0.37180728704E+01 0.34623609150E+01 0.33644993733E+01
 0.34177276542E+01 0.36261187743E+01 0.40033731290E+01 0.45684201410E+01 0.53376925093E+01
 0.63138759064E+01 0.74727908925E+01 0.87535303570E+01 0.10053216394E+02 0.11109362267E+02
 0.11498411876E+02 0.10860711941E+02 0.90360256538E+01 0.61568086616E+01 0.26719012465E+01
 -.72510313708E+00 -.32645246838E+01 -.36381309403E+01 -.43256844719E+01 -.32645351296E+01
 -.72511589806E+00 0.26718828175E+01 0.61567901724E+01 0.90360178975E+01 0.10860717938E+02
 0.11498422741E+02 0.11109368796E+02 0.10053219282E+02 0.87535342709E+01 0.74727944193E+01
 0.63138749960E+01 0.53376895014E+01 0.45684203459E+01 0.40033750047E+01 0.36261167651E+01
 0.34177232612E+01 0.33644997068E+01 0.34623665188E+01 0.37180767319E+01 0.41472112234E+01
 0.47689893217E+01 0.55976739523E+01 0.66306099968E+01 0.78353631051E+01 0.91417129391E+01
 0.10427420505E+02 0.11372719544E+02 0.11552361993E+02 0.10641630081E+02 0.85416378924E+01
 0.54593075376E+01 0.19107494625E+01 -.13740097919E+01 -.13027765861E+01 -.31883389352E+01
 -.34801741380E+01 -.21103219267E+01 0.56785720780E+00 0.38999340787E+01 0.71394005931E+01
 0.96595423824E+01 0.11097326245E+02 0.11400112811E+02 0.10783765139E+02 0.96296371162E+01
 0.83335865179E+01 0.70902591525E+01 0.59877322995E+01 0.50761315788E+01 0.43711904193E+01
 0.38654423614E+01 0.35410499640E+01 0.33800452657E+01 0.33710345889E+01 0.35127021491E+01
 0.38142129923E+01 0.42924955039E+01 0.49663867900E+01 0.58473530932E+01 0.69271942785E+01
 0.81659701984E+01 0.94861463700E+01 0.10743313969E+02 0.11581646531E+02 0.11592857361E+02
 0.10496660582E+02 0.82559567567E+01 0.51406566621E+01 0.17100514771E+01 0.20957406191E+01
 -.51903230597E+00 -.19661408656E+01 -.18845592615E+01 -.30635200725E+00 0.23554621254E+01
 0.54468743756E+01 0.82783382256E+01 0.10314453036E+02 0.11289229374E+02 0.11228613779E+02
 0.10393495439E+02 0.91708044792E+01 0.78944457716E+01 0.67000125045E+01 0.56627934418E+01
 0.48213685962E+01 0.41834117003E+01 0.37375522433E+01 0.34653934720E+01 0.33505137922E+01
 0.33840758507E+01 0.35674168918E+01 0.39117000495E+01 0.44346121182E+01 0.51539833775E+01
 0.60780496236E+01 0.71932346692E+01 0.84532956324E+01 0.97756742362E+01 0.10995646553E+02
 0.11745111553E+02 0.11645581936E+02 0.10466417152E+02 0.82276173396E+01 0.52456595043E+01
 0.57640224025E+01 0.30230167336E+01 0.88748678901E+00 -.10892181592E+00 0.28364396808E+00
 0.19467150725E+01 0.44361827654E+01 0.71319871667E+01 0.94295614734E+01 0.10900932725E+02
 0.11380251381E+02 0.10964505623E+02 0.99450696351E+01 0.86923919521E+01 0.74490127943E+01
 0.63140951817E+01 0.53490754550E+01 0.45810483486E+01 0.40105467160E+01 0.36233673583E+01
 0.34013799753E+01 0.33301655194E+01 0.34035080928E+01 0.36251174675E+01 0.40076486176E+01
 0.45689514897E+01 0.53253113803E+01 0.62815178494E+01 0.74191286653E+01 0.86871198631E+01
 0.10000148805E+02 0.11180916755E+02 0.11869331361E+02 0.11725211183E+02 0.10568412640E+02
 0.84669070793E+01 0.89445153474E+01 0.66323732642E+01 0.43832353799E+01 0.27579194116E+01
 0.21790210711E+01 0.27900077380E+01 0.44072362914E+01 0.65858685968E+01 0.87688609781E+01
 0.10456083865E+02 0.11333662600E+02 0.11331108284E+02 0.10603592741E+02 0.94558197054E+01
 0.82073815923E+01 0.70102259906E+01 0.59438997159E+01 0.50556074801E+01 0.43618128475E+01
 0.38572230186E+01 0.35259475941E+01 0.33508470058E+01 0.33197816513E+01 0.34290383166E+01
 0.36842954310E+01 0.40991523740E+01 0.46910555303E+01 0.54743181672E+01 0.64502898647E+01
 0.75964536200E+01 0.88587086763E+01 0.10151212516E+02 0.11295709230E+02 0.11955049288E+02
 0.11832129398E+02 0.10794133027E+02 0.11110522074E+02 0.95962793631E+01 0.77438356002E+01
 0.60196810557E+01 0.48869629814E+01 0.46556026295E+01 0.53768008498E+01 0.68274741561E+01
 0.85903150431E+01 0.10192769627E+02 0.11248649790E+02 0.11555666368E+02 0.11127195988E+02
 0.10159868091E+02 0.89514838372E+01 0.77292787584E+01 0.65907054621E+01 0.55997902925E+01
 0.47901574595E+01 0.41691357290E+01 0.37271347327E+01 0.34476681887E+01 0.33151432339E+01
 0.33197845982E+01 0.34601132778E+01 0.37433007554E+01 0.41833390190E+01 0.47967541860E+01
 0.55955880493E+01 0.65779683462E+01 0.77183054759E+01 0.89611952736E+01 0.10222726047E+02
 0.11335784660E+02 0.11996519570E+02 0.11952093162E+02 0.12058749190E+02 0.11465450442E+02
 0.10333065818E+02 0.89637478924E+01 0.77500891479E+01 0.70521209298E+01 0.70753325810E+01
 0.77994347048E+01 0.89883033548E+01 0.10274883939E+02 0.11283258880E+02 0.11740924416E+02
 0.11546856639E+02 0.10781786464E+02 0.96648782856E+01 0.84512413459E+01 0.72721091272E+01
 0.62023500097E+01 0.52908208623E+01 0.45591034379E+01 0.40072880233E+01 0.36230345769E+01
 0.33901937813E+01 0.32950732397E+01 0.33301740652E+01 0.34958813472E+01 0.38003538297E+01
 0.42574413887E+01 0.48822998733E+01 0.56845418381E+01 0.66594844802E+01 0.77796092314E+01
 0.89899624398E+01 0.10210784445E+02 0.11296166001E+02 0.11982331406E+02 0.11897860155E+02
 0.12118510895E+02 0.11796282007E+02 0.11054356762E+02 0.10149322856E+02 0.93926130907E+01
 0.90448516213E+01 0.92229952154E+01 0.98590464956E+01 0.10727228836E+02 0.11525737877E+02
 0.11978025450E+02 0.11916713844E+02 0.11325901772E+02 0.10334041603E+02 0.91600844598E+01
 0.79712136770E+01 0.68498408197E+01 0.58559358415E+01 0.50245760825E+01 0.43674430956E+01
 0.38794130578E+01 0.35468018843E+01 0.33545094076E+01 0.32908985090E+01 0.33505268703E+01
 0.35352171022E+01 0.38536047607E+01 0.43188944138E+01 0.49445090014E+01 0.57376293283E+01
 0.66913412770E+01 0.77774151297E+01 0.89430039517E+01 0.10114151641E+02 0.11172201574E+02
 0.10961353386E+02 0.11728866932E+02 0.12096992460E+02 0.12040265138E+02 0.11663566031E+02
 0.11170260655E+02 0.10790997801E+02 0.10698181095E+02 0.10940526670E+02 0.11425376263E+02