   2   2   0   0
  0.1529437E+02  0.3691622E-09  0.3691622E-09  0.3691622E-09  0.5000000E-15
  1.000000000000000E-004
  CAR 
 unknown system                          
     22.69364936     -6.61512387  301      8.98917525      1.00000000
     -6.615  0.0000E+00  0.0000E+00
     -6.517  0.0000E+00  0.0000E+00
     -6.420  0.0000E+00  0.0000E+00
     -6.322  0.0000E+00  0.0000E+00
     -6.224  0.0000E+00  0.0000E+00
     -6.127  0.0000E+00  0.0000E+00
     -6.029  0.0000E+00  0.0000E+00
     -5.931  0.0000E+00  0.0000E+00
     -5.834  0.0000E+00  0.0000E+00
     -5.736  0.4638E-17  0.4532E-18
     -5.638  0.9283E-15  0.9115E-16
     -5.540  0.1189E-12  0.1171E-13
     -5.443  0.9522E-11  0.9420E-12
     -5.345  0.4777E-09  0.4761E-10
     -5.247  0.1503E-07  0.1516E-08
     -5.150  0.2969E-06  0.3052E-07
     -5.052  0.3694E-05  0.3914E-06
     -4.954  0.2907E-04  0.3231E-05
     -4.857  0.1463E-03  0.1753E-04
     -4.759  0.4857E-03  0.6498E-04
     -4.661  0.1143E-02  0.1767E-03
     -4.564  0.2168E-02  0.3885E-03
     -4.466  0.3642E-02  0.7443E-03
     -4.368  0.5387E-02  0.1271E-02
     -4.270  0.7275E-02  0.1981E-02
     -4.173  0.9907E-02  0.2949E-02
     -4.075  0.1255E-01  0.4175E-02
     -3.977  0.1235E-01  0.5381E-02
     -3.880  0.9308E-02  0.6291E-02
     -3.782  0.8301E-02  0.7101E-02
     -3.684  0.1328E-01  0.8399E-02
     -3.587  0.2164E-01  0.1051E-01
     -3.489  0.2606E-01  0.1306E-01
     -3.391  0.2277E-01  0.1528E-01
     -3.293  0.1561E-01  0.1681E-01
     -3.196  0.1071E-01  0.1785E-01
     -3.098  0.9800E-02  0.1881E-01
     -3.000  0.9761E-02  0.1977E-01
     -2.903  0.9173E-02  0.2066E-01
     -2.805  0.1152E-01  0.2179E-01
     -2.707  0.1975E-01  0.2372E-01
     -2.610  0.3012E-01  0.2666E-01
     -2.512  0.3469E-01  0.3005E-01
     -2.414  0.3211E-01  0.3319E-01
     -2.317  0.2949E-01  0.3607E-01
     -2.219  0.3073E-01  0.3907E-01
     -2.121  0.3122E-01  0.4212E-01
     -2.023  0.2643E-01  0.4470E-01
     -1.926  0.1956E-01  0.4661E-01
     -1.828  0.1657E-01  0.4823E-01
     -1.730  0.1899E-01  0.5008E-01
     -1.633  0.2429E-01  0.5246E-01
     -1.535  0.2685E-01  0.5508E-01
     -1.437  0.2336E-01  0.5736E-01
     -1.340  0.1972E-01  0.5929E-01
     -1.242  0.2263E-01  0.6150E-01
     -1.144  0.2762E-01  0.6420E-01
     -1.046  0.2692E-01  0.6683E-01
     -0.949  0.2367E-01  0.6914E-01
     -0.851  0.2601E-01  0.7168E-01
     -0.753  0.3443E-01  0.7505E-01
     -0.656  0.4288E-01  0.7924E-01
     -0.558  0.4718E-01  0.8385E-01
     -0.460  0.4668E-01  0.8841E-01
     -0.363  0.3932E-01  0.9225E-01
     -0.265  0.2620E-01  0.9481E-01
     -0.167  0.1741E-01  0.9651E-01
     -0.069  0.2178E-01  0.9864E-01
      0.028  0.3593E-01  0.1021E+00
      0.126  0.4753E-01  0.1068E+00
      0.224  0.4787E-01  0.1115E+00
      0.321  0.3885E-01  0.1153E+00
      0.419  0.2875E-01  0.1181E+00
      0.517  0.2413E-01  0.1204E+00
      0.614  0.2521E-01  0.1229E+00
      0.712  0.2853E-01  0.1257E+00
      0.810  0.3274E-01  0.1289E+00
      0.907  0.3986E-01  0.1328E+00
      1.005  0.4885E-01  0.1375E+00
      1.103  0.5473E-01  0.1429E+00
      1.201  0.5697E-01  0.1485E+00
      1.298  0.5914E-01  0.1542E+00
      1.396  0.5969E-01  0.1601E+00
      1.494  0.5198E-01  0.1651E+00
      1.591  0.3660E-01  0.1687E+00
      1.689  0.2406E-01  0.1711E+00
      1.787  0.2006E-01  0.1730E+00
      1.884  0.1859E-01  0.1748E+00
      1.982  0.1423E-01  0.1762E+00
      2.080  0.1167E-01  0.1774E+00
      2.178  0.1789E-01  0.1791E+00
      2.275  0.3110E-01  0.1822E+00
      2.373  0.4052E-01  0.1861E+00
      2.471  0.3961E-01  0.1900E+00
      2.568  0.3508E-01  0.1934E+00
      2.666  0.3506E-01  0.1968E+00
      2.764  0.3889E-01  0.2006E+00
      2.861  0.4365E-01  0.2049E+00
      2.959  0.4887E-01  0.2097E+00
      3.057  0.5394E-01  0.2150E+00
      3.154  0.5686E-01  0.2205E+00
      3.252  0.5464E-01  0.2258E+00
      3.350  0.4597E-01  0.2303E+00
      3.448  0.3665E-01  0.2339E+00
      3.545  0.3646E-01  0.2375E+00
      3.643  0.4613E-01  0.2420E+00
      3.741  0.5540E-01  0.2474E+00
      3.838  0.5701E-01  0.2530E+00
      3.936  0.5283E-01  0.2581E+00
      4.034  0.4701E-01  0.2627E+00
      4.131  0.4058E-01  0.2667E+00
      4.229  0.3316E-01  0.2699E+00
      4.327  0.2802E-01  0.2727E+00
      4.425  0.2846E-01  0.2754E+00
      4.522  0.3347E-01  0.2787E+00
      4.620  0.4149E-01  0.2828E+00
      4.718  0.5093E-01  0.2877E+00
      4.815  0.6006E-01  0.2936E+00
      4.913  0.6699E-01  0.3002E+00
      5.011  0.6793E-01  0.3068E+00
      5.108  0.6147E-01  0.3128E+00
      5.206  0.5196E-01  0.3179E+00
      5.304  0.4750E-01  0.3225E+00
      5.401  0.5182E-01  0.3276E+00
      5.499  0.5502E-01  0.3330E+00
      5.597  0.4603E-01  0.3374E+00
      5.695  0.2932E-01  0.3403E+00
      5.792  0.1605E-01  0.3419E+00
      5.890  0.1263E-01  0.3431E+00
      5.988  0.2225E-01  0.3453E+00
      6.085  0.4415E-01  0.3496E+00
      6.183  0.7085E-01  0.3565E+00
      6.281  0.9189E-01  0.3655E+00
      6.378  0.9908E-01  0.3752E+00
      6.476  0.9062E-01  0.3840E+00
      6.574  0.7476E-01  0.3913E+00
      6.672  0.6326E-01  0.3975E+00
      6.769  0.5899E-01  0.4033E+00
      6.867  0.5470E-01  0.4086E+00
      6.965  0.4612E-01  0.4131E+00
      7.062  0.4144E-01  0.4172E+00
      7.160  0.5018E-01  0.4221E+00
      7.258  0.6689E-01  0.4286E+00
      7.355  0.7742E-01  0.4362E+00
      7.453  0.7799E-01  0.4438E+00
      7.551  0.7345E-01  0.4510E+00
      7.648  0.6628E-01  0.4574E+00
      7.746  0.6011E-01  0.4633E+00
      7.844  0.5957E-01  0.4691E+00
      7.942  0.6062E-01  0.4751E+00
      8.039  0.5623E-01  0.4806E+00
      8.137  0.5158E-01  0.4856E+00
      8.235  0.5646E-01  0.4911E+00
      8.332  0.6489E-01  0.4975E+00
      8.430  0.6436E-01  0.5037E+00
      8.528  0.5693E-01  0.5093E+00
      8.625  0.5114E-01  0.5143E+00
      8.723  0.4904E-01  0.5191E+00
      8.821  0.5092E-01  0.5241E+00
      8.919  0.5487E-01  0.5294E+00
      9.016  0.5485E-01  0.5348E+00
      9.114  0.5058E-01  0.5397E+00
      9.212  0.4857E-01  0.5445E+00
      9.309  0.4927E-01  0.5493E+00
      9.407  0.4613E-01  0.5538E+00
      9.505  0.3805E-01  0.5575E+00
      9.602  0.3182E-01  0.5606E+00
      9.700  0.3092E-01  0.5636E+00
      9.798  0.3090E-01  0.5667E+00
      9.895  0.2756E-01  0.5693E+00
      9.993  0.2298E-01  0.5716E+00
     10.091  0.2239E-01  0.5738E+00
     10.189  0.2785E-01  0.5765E+00
     10.286  0.3592E-01  0.5800E+00
     10.384  0.4213E-01  0.5841E+00
     10.482  0.4913E-01  0.5889E+00
     10.579  0.6291E-01  0.5951E+00
     10.677  0.7668E-01  0.6026E+00
     10.775  0.7489E-01  0.6099E+00
     10.872  0.5820E-01  0.6156E+00
     10.970  0.4609E-01  0.6201E+00
     11.068  0.5169E-01  0.6251E+00
     11.166  0.6596E-01  0.6316E+00
     11.263  0.7131E-01  0.6385E+00
     11.361  0.6740E-01  0.6451E+00
     11.459  0.6889E-01  0.6518E+00
     11.556  0.8048E-01  0.6597E+00
     11.654  0.9295E-01  0.6688E+00
     11.752  0.9677E-01  0.6782E+00
     11.849  0.8712E-01  0.6868E+00
     11.947  0.6637E-01  0.6932E+00
     12.045  0.4584E-01  0.6977E+00
     12.142  0.3875E-01  0.7015E+00
     12.240  0.4924E-01  0.7063E+00
     12.338  0.7028E-01  0.7132E+00
     12.436  0.8944E-01  0.7219E+00
     12.533  0.9496E-01  0.7312E+00
     12.631  0.8142E-01  0.7391E+00
     12.729  0.5502E-01  0.7445E+00
     12.826  0.3044E-01  0.7475E+00
     12.924  0.1920E-01  0.7494E+00
     13.022  0.2415E-01  0.7517E+00
     13.119  0.3988E-01  0.7556E+00
     13.217  0.5379E-01  0.7609E+00
     13.315  0.5817E-01  0.7666E+00
     13.413  0.6140E-01  0.7726E+00
     13.510  0.7452E-01  0.7798E+00
     13.608  0.9226E-01  0.7889E+00
     13.706  0.9959E-01  0.7986E+00
     13.803  0.9097E-01  0.8075E+00
     13.901  0.7348E-01  0.8146E+00
     13.999  0.5864E-01  0.8204E+00
     14.096  0.5642E-01  0.8259E+00
     14.194  0.6885E-01  0.8326E+00
     14.292  0.8787E-01  0.8412E+00
     14.389  0.1017E+00  0.8511E+00
     14.487  0.1012E+00  0.8610E+00
     14.585  0.8656E-01  0.8695E+00
     14.683  0.6964E-01  0.8763E+00
     14.780  0.6026E-01  0.8822E+00
     14.878  0.5524E-01  0.8876E+00
     14.976  0.5051E-01  0.8925E+00
     15.073  0.5064E-01  0.8975E+00
     15.171  0.5991E-01  0.9033E+00
     15.269  0.7186E-01  0.9103E+00
     15.366  0.7443E-01  0.9176E+00
     15.464  0.6352E-01  0.9238E+00
     15.562  0.4528E-01  0.9282E+00
     15.660  0.2962E-01  0.9311E+00
     15.757  0.2546E-01  0.9336E+00
     15.855  0.3675E-01  0.9372E+00
     15.953  0.5644E-01  0.9427E+00
     16.050  0.6874E-01  0.9494E+00
     16.148  0.6543E-01  0.9558E+00
     16.246  0.5366E-01  0.9611E+00
     16.343  0.4454E-01  0.9654E+00
     16.441  0.4266E-01  0.9696E+00
     16.539  0.4686E-01  0.9742E+00
     16.637  0.5334E-01  0.9794E+00
     16.734  0.5689E-01  0.9849E+00
     16.832  0.5267E-01  0.9901E+00
     16.930  0.4113E-01  0.9941E+00
     17.027  0.2940E-01  0.9970E+00
     17.125  0.2344E-01  0.9993E+00
     17.223  0.2353E-01  0.1002E+01
     17.320  0.2745E-01  0.1004E+01
     17.418  0.3248E-01  0.1007E+01
     17.516  0.3435E-01  0.1011E+01
     17.613  0.3017E-01  0.1014E+01
     17.711  0.2292E-01  0.1016E+01
     17.809  0.1971E-01  0.1018E+01
     17.907  0.2457E-01  0.1020E+01
     18.004  0.3352E-01  0.1024E+01
     18.102  0.3790E-01  0.1027E+01
     18.200  0.3390E-01  0.1031E+01
     18.297  0.2793E-01  0.1033E+01
     18.395  0.2891E-01  0.1036E+01
     18.493  0.3555E-01  0.1040E+01
     18.590  0.3840E-01  0.1043E+01
     18.688  0.3388E-01  0.1047E+01
     18.786  0.2611E-01  0.1049E+01
     18.884  0.1888E-01  0.1051E+01
     18.981  0.1460E-01  0.1052E+01
     19.079  0.1397E-01  0.1054E+01
     19.177  0.1442E-01  0.1055E+01
     19.274  0.1430E-01  0.1057E+01
     19.372  0.1484E-01  0.1058E+01
     19.470  0.1525E-01  0.1060E+01
     19.567  0.1347E-01  0.1061E+01
     19.665  0.1065E-01  0.1062E+01
     19.763  0.8076E-02  0.1063E+01
     19.860  0.5170E-02  0.1063E+01
     19.958  0.2366E-02  0.1063E+01
     20.056  0.7153E-03  0.1064E+01
     20.154  0.1462E-03  0.1064E+01
     20.251  0.8943E-04  0.1064E+01
     20.349  0.4483E-03  0.1064E+01
     20.447  0.1777E-02  0.1064E+01
     20.544  0.4559E-02  0.1064E+01
     20.642  0.7576E-02  0.1065E+01
     20.740  0.8167E-02  0.1066E+01
     20.837  0.5714E-02  0.1066E+01
     20.935  0.2591E-02  0.1067E+01
     21.033  0.7591E-03  0.1067E+01
     21.131  0.1432E-03  0.1067E+01
     21.228  0.1732E-04  0.1067E+01
     21.326  0.1336E-05  0.1067E+01
     21.424  0.6554E-07  0.1067E+01
     21.521  0.2035E-08  0.1067E+01
     21.619  0.3987E-10  0.1067E+01
     21.717  0.4914E-12  0.1067E+01
     21.814  0.3803E-14  0.1067E+01
     21.912  0.1767E-16  0.1067E+01
     22.010  0.0000E+00  0.1067E+01
     22.107  0.0000E+00  0.1067E+01
     22.205  0.0000E+00  0.1067E+01
     22.303  0.0000E+00  0.1067E+01
     22.401  0.0000E+00  0.1067E+01
     22.498  0.0000E+00  0.1067E+01
     22.596  0.0000E+00  0.1067E+01
     22.694  0.0000E+00  0.1067E+01
