       N       E                     dE             d eps       ncg     rms          rms(c)
DAV:   1    -0.102613124746E+02   -0.10261E+02   -0.29031E-06   408   0.166E-02    0.474E-04
DAV:   2    -0.102613124975E+02   -0.22951E-07   -0.21275E-07   384   0.416E-03
   1 F= -.10261312E+02 E0= -.10253180E+02  d E =-.102613E+02
