    2    2   15    1
  0.2001288E+02  0.3839590E-09  0.3839590E-09  0.3839590E-09  0.5000000E-15
  1.000000000000000E-004
  CAR 
 unknown system                          
      8      4      8
 
  0.0000000E+00  0.0000000E+00  0.0000000E+00  0.3703704E-01
    1       -6.044304   1.000000
    2        5.961457   0.990348
    3        5.961488   0.990342
    4        5.961488   0.990342
    5        8.487750   0.000000
    6        8.487763   0.000000
    7        8.487763   0.000000
    8        9.321537   0.000000
 
  0.3333333E+00  0.6723763E-17  0.1473614E-18  0.2962963E+00
    1       -4.663657   1.000000
    2        0.589389   1.000000
    3        4.941244   1.000000
    4        4.941280   1.000000
    5        7.712246   0.000000
    6        9.449103   0.000000
    7        9.449159   0.000000
    8       13.811842   0.000000
 
  0.3333333E+00  0.3333333E+00  0.1682863E-16  0.2222222E+00
    1       -4.135531   1.000000
    2        0.928467   1.000000
    3        3.506549   1.000000
    4        3.506570   1.000000
    5        6.658309   0.004828
    6        7.929719   0.000000
    7       13.261167   0.000000
    8       13.261178   0.000000
 
 -0.3333333E+00  0.3333333E+00  0.1344753E-16  0.4444444E+00
    1       -2.769095   1.000000
    2       -0.840707   1.000000
    3        1.495349   1.000000
    4        3.816165   1.000000
    5        7.503302   0.000000
    6       11.792868   0.000000
    7       12.438685   0.000000
    8       13.065992   0.000000
