<?xml version="1.0" encoding="ISO-8859-1"?>
<modeling>
 <generator>
  <i name="program" type="string">vasp </i>
  <i name="version" type="string">5.4.4.18Apr17-6-g9f103f2a35  </i>
  <i name="subversion" type="string">(build Dec 09 2018 21:25:21) complex            parallel </i>
  <i name="platform" type="string">IFC18.0.1.163_CrayMPICH7.7.0_MKL18.0.1.163 </i>
  <i name="date" type="string">2019 03 19 </i>
  <i name="time" type="string">13:28:52 </i>
 </generator>
 <incar>
  <i type="string" name="PREC">normal</i>
  <i type="int" name="IBRION">     2</i>
  <i name="EDIFF">      0.00040000</i>
  <i name="EDIFFG">     -0.01000000</i>
  <i type="int" name="NSW">    15</i>
  <i type="int" name="ISIF">     2</i>
  <i name="ENCUT">    200.00000000</i>
  <i type="int" name="NBANDS">     8</i>
  <i type="logical" name="LREAL"> F  </i>
  <i type="int" name="ISMEAR">     0</i>
  <i name="SIGMA">      0.20000000</i>
  <v type="int" name="KPOINT_BSE">    -1     0     0     0</v>
 </incar>
 <structure name="primitive_cell" >
  <crystal>
   <varray name="basis" >
    <v>       0.00000000       2.71500000       2.71500000 </v>
    <v>       2.71500000       0.00000000       2.71500000 </v>
    <v>       2.71500000       2.71500000       0.00000000 </v>
   </varray>
   <i name="volume">     40.02575175 </i>
   <varray name="rec_basis" >
    <v>      -0.18416206       0.18416206       0.18416206 </v>
    <v>       0.18416206      -0.18416206       0.18416206 </v>
    <v>       0.18416206       0.18416206      -0.18416206 </v>
   </varray>
  </crystal>
  <varray name="positions" >
   <v>      -0.50000000      -0.50000000      -0.50000000 </v>
   <v>      -0.25000000      -0.25000000      -0.25000000 </v>
  </varray>
 </structure>
 <varray name="primitive_index" >
  <v type="int" >        1 </v>
  <v type="int" >        2 </v>
 </varray>
 <kpoints>
  <generation param="Monkhorst-Pack">
   <v type="int" name="divisions">       3        3        3 </v>
   <v name="usershift">      0.00000000       0.00000000       0.00000000 </v>
   <v name="genvec1">      0.33333333      -0.00000000       0.00000000 </v>
   <v name="genvec2">     -0.00000000       0.33333333      -0.00000000 </v>
   <v name="genvec3">      0.00000000       0.00000000       0.33333333 </v>
   <v name="shift">      0.00000000       0.00000000       0.00000000 </v>
  </generation>
  <varray name="kpointlist" >
   <v>       0.00000000       0.00000000       0.00000000 </v>
   <v>       0.33333333       0.00000000       0.00000000 </v>
   <v>       0.33333333       0.33333333       0.00000000 </v>
   <v>      -0.33333333       0.33333333       0.00000000 </v>
  </varray>
  <varray name="weights" >
   <v>       0.03703704 </v>
   <v>       0.29629630 </v>
   <v>       0.22222222 </v>
   <v>       0.44444444 </v>
  </varray>
 </kpoints>
 <parameters>
  <separator name="general" >
   <i type="string" name="SYSTEM">unknown system</i>
   <i type="logical" name="LCOMPAT"> F  </i>
  </separator>
  <separator name="electronic" >
   <i type="string" name="PREC">normal</i>
   <i name="ENMAX">    200.00000000</i>
   <i name="ENAUG">    322.06900000</i>
   <i name="EDIFF">      0.00040000</i>
   <i type="int" name="IALGO">    38</i>
   <i type="int" name="IWAVPR">    11</i>
   <i type="int" name="NBANDS">     8</i>
   <i name="NELECT">      8.00000000</i>
   <i type="int" name="TURBO">     0</i>
   <i type="int" name="IRESTART">     0</i>
   <i type="int" name="NREBOOT">     0</i>
   <i type="int" name="NMIN">     0</i>
   <i name="EREF">      0.00000000</i>
   <separator name="electronic smearing" >
    <i type="int" name="ISMEAR">     0</i>
    <i name="SIGMA">      0.20000000</i>
    <i name="KSPACING">      0.50000000</i>
    <i type="logical" name="KGAMMA"> T  </i>
   </separator>
   <separator name="electronic projectors" >
    <i type="logical" name="LREAL"> F  </i>
    <v name="ROPT">      0.00000000</v>
    <i type="int" name="LMAXPAW">  -100</i>
    <i type="int" name="LMAXMIX">     2</i>
    <i type="logical" name="NLSPLINE"> F  </i>
   </separator>
   <separator name="electronic startup" >
    <i type="int" name="ISTART">     1</i>
    <i type="int" name="ICHARG">     0</i>
    <i type="int" name="INIWAV">     1</i>
   </separator>
   <separator name="electronic spin" >
    <i type="int" name="ISPIN">     1</i>
    <i type="logical" name="LNONCOLLINEAR"> F  </i>
    <v name="MAGMOM">      1.00000000      1.00000000</v>
    <i name="NUPDOWN">     -1.00000000</i>
    <i type="logical" name="LSORBIT"> F  </i>
    <v name="SAXIS">      0.00000000      0.00000000      1.00000000</v>
    <i type="logical" name="LSPIRAL"> F  </i>
    <v name="QSPIRAL">      0.00000000      0.00000000      0.00000000</v>
    <i type="logical" name="LZEROZ"> F  </i>
   </separator>
   <separator name="electronic exchange-correlation" >
    <i type="logical" name="LASPH"> F  </i>
    <i type="logical" name="LMETAGGA"> F  </i>
   </separator>
   <separator name="electronic convergence" >
    <i type="int" name="NELM">    60</i>
    <i type="int" name="NELMDL">     0</i>
    <i type="int" name="NELMIN">     2</i>
    <i name="ENINI">    200.00000000</i>
    <separator name="electronic convergence detail" >
     <i type="logical" name="LDIAG"> T  </i>
     <i type="logical" name="LSUBROT"> F  </i>
     <i name="WEIMIN">      0.00100000</i>
     <i name="EBREAK">      0.00001250</i>
     <i name="DEPER">      0.30000000</i>
     <i type="int" name="NRMM">     4</i>
     <i name="TIME">      0.40000000</i>
    </separator>
   </separator>
   <separator name="electronic mixer" >
    <i name="AMIX">      0.40000000</i>
    <i name="BMIX">      1.00000000</i>
    <i name="AMIN">      0.10000000</i>
    <i name="AMIX_MAG">      1.60000000</i>
    <i name="BMIX_MAG">      1.00000000</i>
    <separator name="electronic mixer details" >
     <i type="int" name="IMIX">     4</i>
     <i type="logical" name="MIXFIRST"> F  </i>
     <i type="int" name="MAXMIX">   -45</i>
     <i name="WC">    100.00000000</i>
     <i type="int" name="INIMIX">     1</i>
     <i type="int" name="MIXPRE">     1</i>
     <i type="int" name="MREMOVE">     5</i>
    </separator>
   </separator>
   <separator name="electronic dipolcorrection" >
    <i type="logical" name="LDIPOL"> F  </i>
    <i type="logical" name="LMONO"> F  </i>
    <i type="int" name="IDIPOL">     0</i>
    <i name="EPSILON">      1.00000000</i>
    <v name="DIPOL">   -100.00000000   -100.00000000   -100.00000000</v>
    <i name="EFIELD">      0.00000000</i>
   </separator>
  </separator>
  <separator name="grids" >
   <i type="int" name="NGX">    14</i>
   <i type="int" name="NGY">    14</i>
   <i type="int" name="NGZ">    14</i>
   <i type="int" name="NGXF">    28</i>
   <i type="int" name="NGYF">    28</i>
   <i type="int" name="NGZF">    28</i>
   <i type="logical" name="ADDGRID"> F  </i>
  </separator>
  <separator name="ionic" >
   <i type="int" name="NSW">    15</i>
   <i type="int" name="IBRION">     2</i>
   <i type="int" name="MDALGO">     0</i>
   <i type="int" name="ISIF">     2</i>
   <i name="PSTRESS">      0.00000000</i>
   <i name="EDIFFG">     -0.01000000</i>
   <i type="int" name="NFREE">     1</i>
   <i name="POTIM">      0.50000000</i>
   <i name="SMASS">     -3.00000000</i>
   <i name="SCALEE">      1.00000000</i>
  </separator>
  <separator name="ionic md" >
   <i name="TEBEG">      0.00010000</i>
   <i name="TEEND">      0.00010000</i>
   <i type="int" name="NBLOCK">     1</i>
   <i type="int" name="KBLOCK">    15</i>
   <i type="int" name="NPACO">   256</i>
   <i name="APACO">     16.00000000</i>
  </separator>
  <separator name="symmetry" >
   <i type="int" name="ISYM">     2</i>
   <i name="SYMPREC">      0.00001000</i>
  </separator>
  <separator name="dos" >
   <i type="int" name="LORBIT">     0</i>
   <v name="RWIGS">     -1.00000000</v>
   <i type="int" name="NEDOS">   301</i>
   <i name="EMIN">     10.00000000</i>
   <i name="EMAX">    -10.00000000</i>
   <i name="EFERMI">      0.00000000</i>
  </separator>
  <separator name="writing" >
   <i type="int" name="NWRITE">     2</i>
   <i type="logical" name="LWAVE"> T  </i>
   <i type="logical" name="LDOWNSAMPLE"> F  </i>
   <i type="logical" name="LCHARG"> T  </i>
   <i type="logical" name="LPARD"> F  </i>
   <i type="logical" name="LVTOT"> F  </i>
   <i type="logical" name="LVHAR"> F  </i>
   <i type="logical" name="LELF"> F  </i>
   <i type="logical" name="LOPTICS"> F  </i>
   <v name="STM">      0.00000000      0.00000000      0.00000000      0.00000000      0.00000000      0.00000000      0.00000000</v>
  </separator>
  <separator name="performance" >
   <i type="int" name="NPAR">     8</i>
   <i type="int" name="NSIM">     4</i>
   <i type="int" name="NBLK">    -1</i>
   <i type="logical" name="LPLANE"> T  </i>
   <i type="logical" name="LSCALAPACK"> T  </i>
   <i type="logical" name="LSCAAWARE"> F  </i>
   <i type="logical" name="LSCALU"> F  </i>
   <i type="logical" name="LASYNC"> F  </i>
   <i type="logical" name="LORBITALREAL"> F  </i>
  </separator>
  <separator name="miscellaneous" >
   <i type="int" name="IDIOT">     3</i>
   <i type="int" name="ISPECIAL">     0</i>
   <i type="logical" name="LMUSIC"> F  </i>
   <v name="POMASS">     28.08500000</v>
   <v name="DARWINR">      0.00000000</v>
   <v name="DARWINV">      1.00000000</v>
   <i type="logical" name="LCORR"> T  </i>
  </separator>
  <i type="logical" name="GGA_COMPAT"> T  </i>
  <i type="logical" name="LBERRY"> F  </i>
  <i type="int" name="ICORELEVEL">     0</i>
  <i type="logical" name="LDAU"> F  </i>
  <i type="int" name="I_CONSTRAINED_M">     0</i>
  <separator name="electronic exchange-correlation" >
   <i type="string" name="GGA">--</i>
   <i type="int" name="VOSKOWN">     0</i>
   <i type="logical" name="LHFCALC"> F  </i>
   <i type="string" name="PRECFOCK"></i>
   <i type="logical" name="LSYMGRAD"> F  </i>
   <i type="logical" name="LHFONE"> F  </i>
   <i type="logical" name="LRHFCALC"> F  </i>
   <i type="logical" name="LTHOMAS"> F  </i>
   <i type="logical" name="LMODELHF"> F  </i>
   <i name="ENCUT4O">     -1.00000000</i>
   <i type="int" name="EXXOEP">     0</i>
   <i type="int" name="FOURORBIT">     0</i>
   <i name="AEXX">      0.00000000</i>
   <i name="HFALPHA">      0.00000000</i>
   <i name="MCALPHA">      0.00000000</i>
   <i name="ALDAX">      1.00000000</i>
   <i name="AGGAX">      1.00000000</i>
   <i name="ALDAC">      1.00000000</i>
   <i name="AGGAC">      1.00000000</i>
   <i type="int" name="NKREDX">     1</i>
   <i type="int" name="NKREDY">     1</i>
   <i type="int" name="NKREDZ">     1</i>
   <i type="logical" name="SHIFTRED"> F  </i>
   <i type="logical" name="ODDONLY"> F  </i>
   <i type="logical" name="EVENONLY"> F  </i>
   <i type="int" name="LMAXFOCK">     0</i>
   <i type="int" name="NMAXFOCKAE">     0</i>
   <i type="logical" name="LFOCKAEDFT"> F  </i>
   <i name="HFSCREEN">      0.00000000</i>
   <i name="HFSCREENC">      0.00000000</i>
   <i type="int" name="NBANDSGWLOW">     0</i>
  </separator>
  <separator name="vdW DFT" >
   <i type="logical" name="LUSE_VDW"> F  </i>
   <i name="Zab_VDW">     -0.84910000</i>
   <i name="PARAM1">      0.12340000</i>
   <i name="PARAM2">      1.00000000</i>
   <i name="PARAM3">      0.00000000</i>
  </separator>
  <separator name="model GW" >
   <i type="int" name="MODEL_GW">     0</i>
   <i name="MODEL_EPS0">     12.00772552</i>
   <i name="MODEL_ALPHA">      1.00000000</i>
  </separator>
  <separator name="linear response parameters" >
   <i type="logical" name="LEPSILON"> F  </i>
   <i type="logical" name="LRPA"> F  </i>
   <i type="logical" name="LNABLA"> F  </i>
   <i type="logical" name="LVEL"> F  </i>
   <i type="int" name="KINTER">     0</i>
   <i name="CSHIFT">      0.10000000</i>
   <i name="OMEGAMAX">     -1.00000000</i>
   <i name="DEG_THRESHOLD">      0.00200000</i>
   <i name="RTIME">     -0.10000000</i>
   <i name="WPLASMAI">      0.00000000</i>
   <v name="DFIELD">      0.00000000      0.00000000      0.00000000</v>
   <v name="WPLASMA">      0.00000000      0.00000000      0.00000000      0.00000000      0.00000000      0.00000000      0.00000000      0.00000000      0.00000000</v>
  </separator>
  <separator name="orbital magnetization" >
   <i type="logical" name="NUCIND"> F  </i>
   <v name="MAGPOS">      0.00000000      0.00000000      0.00000000</v>
   <i type="logical" name="LNICSALL"> T  </i>
   <i type="logical" name="ORBITALMAG"> F  </i>
   <i type="logical" name="LMAGBLOCH"> F  </i>
   <i type="logical" name="LCHIMAG"> F  </i>
   <i type="logical" name="LGAUGE"> T  </i>
   <i type="int" name="MAGATOM">     0</i>
   <v name="MAGDIPOL">      0.00000000      0.00000000      0.00000000</v>
   <v name="AVECCONST">      0.00000000      0.00000000      0.00000000</v>
  </separator>
  <separator name="response functions" >
   <i type="logical" name="LADDER"> F  </i>
   <i type="logical" name="LRPAFORCE"> F  </i>
   <i type="logical" name="LFXC"> F  </i>
   <i type="logical" name="LHARTREE"> T  </i>
   <i type="int" name="IBSE">     0</i>
   <v type="int" name="KPOINT">    -1     0     0     0</v>
   <i type="logical" name="LTCTE"> F  </i>
   <i type="logical" name="LTETE"> F  </i>
   <i type="logical" name="LTRIPLET"> F  </i>
   <i type="logical" name="LFXCEPS"> F  </i>
   <i type="logical" name="LFXHEG"> F  </i>
   <i type="int" name="NATURALO">     2</i>
   <i type="logical" name="L2ORDER"> F  </i>
   <i type="logical" name="LMP2LT"> F  </i>
   <i type="logical" name="LUSEW"> F  </i>
   <i name="ENCUTGW">     -2.00000000</i>
   <i name="ENCUTGWSOFT">     -2.00000000</i>
   <i name="ENCUTLF">     -1.00000000</i>
   <i type="int" name="LMAXMP2">    -1</i>
   <i name="SCISSOR">      0.00000000</i>
   <i type="int" name="NOMEGA">     0</i>
   <i type="int" name="NOMEGAR">     0</i>
   <i type="int" name="NBANDSGW">    -1</i>
   <i type="int" name="NBANDSO">    -1</i>
   <i type="int" name="NBANDSV">    -1</i>
   <i type="int" name="NELM">     1</i>
   <i type="int" name="NELMHF">     1</i>
   <i type="int" name="DIM">     3</i>
   <i type="int" name="ANTIRES">     0</i>
   <i name="OMEGAMAX">    -30.00000000</i>
   <i name="OMEGAMIN">    -30.00000000</i>
   <i name="OMEGATL">   -200.00000000</i>
   <i type="int" name="OMEGAGRID">   140</i>
   <i name="CSHIFT">     -0.10000000</i>
   <i type="logical" name="SELFENERGY"> F  </i>
   <i type="logical" name="LSPECTRAL"> F  </i>
   <i type="logical" name="LSPECTRALGW"> F  </i>
   <i type="logical" name="LSINGLES"> F  </i>
   <i type="logical" name="LFERMIGW"> F  </i>
   <i type="logical" name="ODDONLYGW"> F  </i>
   <i type="logical" name="EVENONLYGW"> F  </i>
   <i type="int" name="NKREDLFX">     1</i>
   <i type="int" name="NKREDLFY">     1</i>
   <i type="int" name="NKREDLFZ">     1</i>
   <i type="int" name="MAXMEM">  2800</i>
   <i type="int" name="TELESCOPE">     0</i>
   <i type="int" name="TAUPAR">     1</i>
   <i type="int" name="OMEGAPAR">    -1</i>
   <i name="LAMBDA">      1.00000000</i>
  </separator>
  <separator name="External order field" >
   <i name="OFIELD_KAPPA">      0.00000000</i>
   <v name="OFIELD_K">      0.00000000      0.00000000      0.00000000</v>
   <i name="OFIELD_Q6_NEAR">      0.00000000</i>
   <i name="OFIELD_Q6_FAR">      0.00000000</i>
   <i name="OFIELD_A">      0.00000000</i>
  </separator>
 </parameters>
 <atominfo>
  <atoms>       2 </atoms>
  <types>       1 </types>
  <array name="atoms" >
   <dimension dim="1">ion</dimension>
   <field type="string">element</field>
   <field type="int">atomtype</field>
   <set>
    <rc><c>Si</c><c>   1</c></rc>
    <rc><c>Si</c><c>   1</c></rc>
   </set>
  </array>
  <array name="atomtypes" >
   <dimension dim="1">type</dimension>
   <field type="int">atomspertype</field>
   <field type="string">element</field>
   <field>mass</field>
   <field>valence</field>
   <field type="string">pseudopotential</field>
   <set>
    <rc><c>   2</c><c>Si</c><c>     28.08500000</c><c>      4.00000000</c><c> PAW_PBE Si 05Jan2001                   </c></rc>
   </set>
  </array>
 </atominfo>
 <structure name="initialpos" >
  <crystal>
   <varray name="basis" >
    <v>       0.00000000       2.71500000       2.71500000 </v>
    <v>       2.71500000       0.00000000       2.71500000 </v>
    <v>       2.71500000       2.71500000       0.00000000 </v>
   </varray>
   <i name="volume">     40.02575175 </i>
   <varray name="rec_basis" >
    <v>      -0.18416206       0.18416206       0.18416206 </v>
    <v>       0.18416206      -0.18416206       0.18416206 </v>
    <v>       0.18416206       0.18416206      -0.18416206 </v>
   </varray>
  </crystal>
  <varray name="positions" >
   <v>       0.50000000       0.50000000       0.50000000 </v>
   <v>       0.75000000       0.75000000       0.75000000 </v>
  </varray>
 </structure>
 <calculation>
  <scstep>
   <time name="dav">    0.02    0.02</time>
   <time name="total">    0.07    0.08</time>
   <energy>
    <i name="alphaZ">      3.36414203 </i>
    <i name="ewald">   -228.56352493 </i>
    <i name="hartreedc">    -15.69723097 </i>
    <i name="XCdc">    -17.84236618 </i>
    <i name="pawpsdc">     76.48938312 </i>
    <i name="pawaedc">    -41.56206622 </i>
    <i name="eentropy">     -0.00169547 </i>
    <i name="bandstr">      7.52477670 </i>
    <i name="atom">    206.11247263 </i>
    <i name="e_fr_energy">    -10.17610930 </i>
    <i name="e_wo_entrp">    -10.17441383 </i>
    <i name="e_0_energy">    -10.17526156 </i>
   </energy>
  </scstep>
  <scstep>
   <time name="dav">    0.02    0.02</time>
   <time name="total">    0.04    0.06</time>
   <energy>
    <i name="alphaZ">      3.36414203 </i>
    <i name="ewald">   -228.56352493 </i>
    <i name="hartreedc">    -15.69723944 </i>
    <i name="XCdc">    -17.84232966 </i>
    <i name="pawpsdc">     76.48807398 </i>
    <i name="pawaedc">    -41.56069644 </i>
    <i name="eentropy">     -0.00169336 </i>
    <i name="bandstr">      7.52468539 </i>
    <i name="atom">    206.11247263 </i>
    <i name="e_fr_energy">    -10.17610980 </i>
    <i name="e_wo_entrp">    -10.17441645 </i>
    <i name="e_0_energy">    -10.17526312 </i>
   </energy>
  </scstep>
  <structure>
   <crystal>
    <varray name="basis" >
     <v>       0.00000000       2.71500000       2.71500000 </v>
     <v>       2.71500000       0.00000000       2.71500000 </v>
     <v>       2.71500000       2.71500000       0.00000000 </v>
    </varray>
    <i name="volume">     40.02575175 </i>
    <varray name="rec_basis" >
     <v>      -0.18416206       0.18416206       0.18416206 </v>
     <v>       0.18416206      -0.18416206       0.18416206 </v>
     <v>       0.18416206       0.18416206      -0.18416206 </v>
    </varray>
   </crystal>
   <varray name="positions" >
    <v>       0.50000000       0.50000000       0.50000000 </v>
    <v>       0.75000000       0.75000000       0.75000000 </v>
   </varray>
  </structure>
  <varray name="forces" >
   <v>      -0.00000000      -0.00000000      -0.00000000 </v>
   <v>       0.00000000       0.00000000       0.00000000 </v>
  </varray>
  <varray name="stress" >
   <v>      38.26422175      -0.00000000      -0.00000000 </v>
   <v>       0.00000000      38.26422175       0.00000000 </v>
   <v>       0.00000000       0.00000000      38.26422175 </v>
  </varray>
  <energy>
   <i name="e_fr_energy">    -10.17610980 </i>
   <i name="e_wo_entrp">    -10.17526312 </i>
   <i name="e_0_energy">     -0.00169336 </i>
  </energy>
  <time name="totalsc">    0.69    1.03</time>
  <eigenvalues>
   <array>
    <dimension dim="1">band</dimension>
    <dimension dim="2">kpoint</dimension>
    <dimension dim="3">spin</dimension>
    <field>eigene</field>
    <field>occ</field>
    <set>
     <set comment="spin 1">
      <set comment="kpoint 1">
       <r>   -6.0443    1.0000 </r>
       <r>    5.9615    0.9903 </r>
       <r>    5.9615    0.9903 </r>
       <r>    5.9615    0.9903 </r>
       <r>    8.4878    0.0000 </r>
       <r>    8.4878    0.0000 </r>
       <r>    8.4878    0.0000 </r>
       <r>    9.3215    0.0000 </r>
      </set>
      <set comment="kpoint 2">
       <r>   -4.6637    1.0000 </r>
       <r>    0.5894    1.0000 </r>
       <r>    4.9412    1.0000 </r>
       <r>    4.9413    1.0000 </r>
       <r>    7.7122    0.0000 </r>
       <r>    9.4491    0.0000 </r>
       <r>    9.4492    0.0000 </r>
       <r>   13.8118    0.0000 </r>
      </set>
      <set comment="kpoint 3">
       <r>   -4.1355    1.0000 </r>
       <r>    0.9285    1.0000 </r>
       <r>    3.5065    1.0000 </r>
       <r>    3.5066    1.0000 </r>
       <r>    6.6583    0.0048 </r>
       <r>    7.9297    0.0000 </r>
       <r>   13.2612    0.0000 </r>
       <r>   13.2612    0.0000 </r>
      </set>
      <set comment="kpoint 4">
       <r>   -2.7691    1.0000 </r>
       <r>   -0.8407    1.0000 </r>
       <r>    1.4953    1.0000 </r>
       <r>    3.8162    1.0000 </r>
       <r>    7.5033    0.0000 </r>
       <r>   11.7929    0.0000 </r>
       <r>   12.4387    0.0000 </r>
       <r>   13.0660    0.0000 </r>
      </set>
     </set>
    </set>
   </array>
  </eigenvalues>
  <separator name="orbital magnetization" >
   <v name="MAGDIPOLOUT">      0.00000000      0.00000000      0.00000000</v>
  </separator>
  <dos>
   <i name="efermi">      6.29232474 </i>
   <total>
    <array>
     <dimension dim="1">gridpoints</dimension>
     <dimension dim="2">spin</dimension>
     <field>energy</field>
     <field>total</field>
     <field>integrated</field>
     <set>
      <set comment="spin 1">
       <r>    -8.0443     0.0000     0.0000 </r>
       <r>    -7.9648     0.0000     0.0000 </r>
       <r>    -7.8853     0.0000     0.0000 </r>
       <r>    -7.8057     0.0000     0.0000 </r>
       <r>    -7.7262     0.0000     0.0000 </r>
       <r>    -7.6467     0.0000     0.0000 </r>
       <r>    -7.5672     0.0000     0.0000 </r>
       <r>    -7.4877     0.0000     0.0000 </r>
       <r>    -7.4081     0.0000     0.0000 </r>
       <r>    -7.3286     0.0000     0.0000 </r>
       <r>    -7.2491     0.0000     0.0000 </r>
       <r>    -7.1696     0.0000     0.0000 </r>
       <r>    -7.0901     0.0000     0.0000 </r>
       <r>    -7.0105     0.0000     0.0000 </r>
       <r>    -6.9310     0.0000     0.0000 </r>
       <r>    -6.8515     0.0000     0.0000 </r>
       <r>    -6.7720     0.0000     0.0000 </r>
       <r>    -6.6925     0.0000     0.0000 </r>
       <r>    -6.6129     0.0000     0.0000 </r>
       <r>    -6.5334     0.0002     0.0000 </r>
       <r>    -6.4539     0.0015     0.0001 </r>
       <r>    -6.3744     0.0074     0.0007 </r>
       <r>    -6.2949     0.0265     0.0028 </r>
       <r>    -6.2153     0.0699     0.0084 </r>
       <r>    -6.1358     0.1356     0.0192 </r>
       <r>    -6.0563     0.1932     0.0345 </r>
       <r>    -5.9768     0.2024     0.0506 </r>
       <r>    -5.8973     0.1558     0.0630 </r>
       <r>    -5.8177     0.0882     0.0700 </r>
       <r>    -5.7382     0.0367     0.0729 </r>
       <r>    -5.6587     0.0112     0.0738 </r>
       <r>    -5.5792     0.0025     0.0740 </r>
       <r>    -5.4996     0.0004     0.0741 </r>
       <r>    -5.4201     0.0001     0.0741 </r>
       <r>    -5.3406     0.0000     0.0741 </r>
       <r>    -5.2611     0.0001     0.0741 </r>
       <r>    -5.1816     0.0008     0.0741 </r>
       <r>    -5.1020     0.0063     0.0746 </r>
       <r>    -5.0225     0.0344     0.0774 </r>
       <r>    -4.9430     0.1381     0.0884 </r>
       <r>    -4.8635     0.4077     0.1208 </r>
       <r>    -4.7840     0.8841     0.1911 </r>
       <r>    -4.7044     1.4090     0.3031 </r>
       <r>    -4.6249     1.6512     0.4344 </r>
       <r>    -4.5454     1.4290     0.5481 </r>
       <r>    -4.4659     0.9423     0.6230 </r>
       <r>    -4.3864     0.5758     0.6688 </r>
       <r>    -4.3068     0.5608     0.7134 </r>
       <r>    -4.2273     0.8477     0.7808 </r>
       <r>    -4.1478     1.1651     0.8734 </r>
       <r>    -4.0683     1.2158     0.9701 </r>
       <r>    -3.9888     0.9364     1.0446 </r>
       <r>    -3.9092     0.5303     1.0868 </r>
       <r>    -3.8297     0.2207     1.1043 </r>
       <r>    -3.7502     0.0675     1.1097 </r>
       <r>    -3.6707     0.0152     1.1109 </r>
       <r>    -3.5912     0.0025     1.1111 </r>
       <r>    -3.5116     0.0003     1.1111 </r>
       <r>    -3.4321     0.0000     1.1111 </r>
       <r>    -3.3526     0.0002     1.1111 </r>
       <r>    -3.2731     0.0018     1.1113 </r>
       <r>    -3.1936     0.0130     1.1123 </r>
       <r>    -3.1140     0.0673     1.1177 </r>
       <r>    -3.0345     0.2561     1.1380 </r>
       <r>    -2.9550     0.7161     1.1950 </r>
       <r>    -2.8755     1.4713     1.3120 </r>
       <r>    -2.7960     2.2214     1.4886 </r>
       <r>    -2.7164     2.4649     1.6846 </r>
       <r>    -2.6369     2.0101     1.8445 </r>
       <r>    -2.5574     1.2047     1.9403 </r>
       <r>    -2.4779     0.5306     1.9825 </r>
       <r>    -2.3983     0.1717     1.9961 </r>
       <r>    -2.3188     0.0408     1.9994 </r>
       <r>    -2.2393     0.0071     1.9999 </r>
       <r>    -2.1598     0.0009     2.0000 </r>
       <r>    -2.0803     0.0001     2.0000 </r>
       <r>    -2.0007     0.0000     2.0000 </r>
       <r>    -1.9212     0.0000     2.0000 </r>
       <r>    -1.8417     0.0000     2.0000 </r>
       <r>    -1.7622     0.0000     2.0000 </r>
       <r>    -1.6827     0.0000     2.0000 </r>
       <r>    -1.6031     0.0000     2.0000 </r>
       <r>    -1.5236     0.0000     2.0000 </r>
       <r>    -1.4441     0.0001     2.0000 </r>
       <r>    -1.3646     0.0011     2.0001 </r>
       <r>    -1.2851     0.0082     2.0007 </r>
       <r>    -1.2055     0.0459     2.0044 </r>
       <r>    -1.1260     0.1887     2.0194 </r>
       <r>    -1.0465     0.5699     2.0647 </r>
       <r>    -0.9670     1.2648     2.1653 </r>
       <r>    -0.8875     2.0625     2.3293 </r>
       <r>    -0.8079     2.4719     2.5259 </r>
       <r>    -0.7284     2.1773     2.6990 </r>
       <r>    -0.6489     1.4095     2.8111 </r>
       <r>    -0.5694     0.6705     2.8644 </r>
       <r>    -0.4899     0.2344     2.8831 </r>
       <r>    -0.4103     0.0602     2.8878 </r>
       <r>    -0.3308     0.0113     2.8888 </r>
       <r>    -0.2513     0.0016     2.8889 </r>
       <r>    -0.1718     0.0002     2.8889 </r>
       <r>    -0.0923     0.0000     2.8889 </r>
       <r>    -0.0127     0.0001     2.8889 </r>
       <r>     0.0668     0.0007     2.8890 </r>
       <r>     0.1463     0.0056     2.8894 </r>
       <r>     0.2258     0.0314     2.8919 </r>
       <r>     0.3053     0.1284     2.9021 </r>
       <r>     0.3849     0.3861     2.9328 </r>
       <r>     0.4644     0.8544     3.0007 </r>
       <r>     0.5439     1.3978     3.1119 </r>
       <r>     0.6234     1.7170     3.2484 </r>
       <r>     0.7029     1.6679     3.3811 </r>
       <r>     0.7825     1.4649     3.4976 </r>
       <r>     0.8620     1.3808     3.6074 </r>
       <r>     0.9415     1.3698     3.7163 </r>
       <r>     1.0210     1.1993     3.8117 </r>
       <r>     1.1006     0.8401     3.8785 </r>
       <r>     1.1801     0.5307     3.9207 </r>
       <r>     1.2596     0.5463     3.9641 </r>
       <r>     1.3391     1.0146     4.0448 </r>
       <r>     1.4186     1.7875     4.1869 </r>
       <r>     1.4982     2.3952     4.3774 </r>
       <r>     1.5777     2.3682     4.5657 </r>
       <r>     1.6572     1.7216     4.7026 </r>
       <r>     1.7367     0.9198     4.7758 </r>
       <r>     1.8162     0.3611     4.8045 </r>
       <r>     1.8958     0.1041     4.8128 </r>
       <r>     1.9753     0.0221     4.8145 </r>
       <r>     2.0548     0.0034     4.8148 </r>
       <r>     2.1343     0.0004     4.8148 </r>
       <r>     2.2138     0.0000     4.8148 </r>
       <r>     2.2934     0.0000     4.8148 </r>
       <r>     2.3729     0.0000     4.8148 </r>
       <r>     2.4524     0.0000     4.8148 </r>
       <r>     2.5319     0.0000     4.8148 </r>
       <r>     2.6114     0.0000     4.8148 </r>
       <r>     2.6910     0.0000     4.8148 </r>
       <r>     2.7705     0.0000     4.8148 </r>
       <r>     2.8500     0.0000     4.8148 </r>
       <r>     2.9295     0.0002     4.8148 </r>
       <r>     3.0090     0.0022     4.8150 </r>
       <r>     3.0886     0.0150     4.8162 </r>
       <r>     3.1681     0.0759     4.8222 </r>
       <r>     3.2476     0.2820     4.8447 </r>
       <r>     3.3271     0.7708     4.9060 </r>
       <r>     3.4066     1.5571     5.0298 </r>
       <r>     3.4862     2.3547     5.2170 </r>
       <r>     3.5657     2.7704     5.4373 </r>
       <r>     3.6452     2.7899     5.6592 </r>
       <r>     3.7247     2.7676     5.8793 </r>
       <r>     3.8042     2.8087     6.1026 </r>
       <r>     3.8838     2.5831     6.3080 </r>
       <r>     3.9633     1.9050     6.4595 </r>
       <r>     4.0428     1.0634     6.5441 </r>
       <r>     4.1223     0.4402     6.5791 </r>
       <r>     4.2019     0.1342     6.5898 </r>
       <r>     4.2814     0.0301     6.5921 </r>
       <r>     4.3609     0.0052     6.5926 </r>
       <r>     4.4404     0.0033     6.5928 </r>
       <r>     4.5199     0.0186     6.5943 </r>
       <r>     4.5995     0.0951     6.6019 </r>
       <r>     4.6790     0.3577     6.6303 </r>
       <r>     4.7585     0.9880     6.7089 </r>
       <r>     4.8380     2.0055     6.8684 </r>
       <r>     4.9175     2.9914     7.1062 </r>
       <r>     4.9971     3.2792     7.3670 </r>
       <r>     5.0766     2.6420     7.5771 </r>
       <r>     5.1561     1.5644     7.7015 </r>
       <r>     5.2356     0.6807     7.7556 </r>
       <r>     5.3151     0.2176     7.7729 </r>
       <r>     5.3947     0.0512     7.7770 </r>
       <r>     5.4742     0.0095     7.7777 </r>
       <r>     5.5537     0.0058     7.7782 </r>
       <r>     5.6332     0.0229     7.7800 </r>
       <r>     5.7127     0.0815     7.7865 </r>
       <r>     5.7923     0.2136     7.8035 </r>
       <r>     5.8718     0.4114     7.8362 </r>
       <r>     5.9513     0.5823     7.8825 </r>
       <r>     6.0308     0.6057     7.9307 </r>
       <r>     6.1103     0.4633     7.9675 </r>
       <r>     6.1899     0.2624     7.9884 </r>
       <r>     6.2694     0.1215     7.9981 </r>
       <r>     6.3489     0.0961     8.0057 </r>
       <r>     6.4284     0.2179     8.0230 </r>
       <r>     6.5079     0.5143     8.0639 </r>
       <r>     6.5875     0.9188     8.1370 </r>
       <r>     6.6670     1.2087     8.2331 </r>
       <r>     6.7465     1.1687     8.3260 </r>
       <r>     6.8260     0.8306     8.3921 </r>
       <r>     6.9055     0.4339     8.4266 </r>
       <r>     6.9851     0.1677     8.4399 </r>
       <r>     7.0646     0.0563     8.4444 </r>
       <r>     7.1441     0.0612     8.4493 </r>
       <r>     7.2236     0.2095     8.4659 </r>
       <r>     7.3031     0.6216     8.5153 </r>
       <r>     7.3827     1.3826     8.6253 </r>
       <r>     7.4622     2.3262     8.8103 </r>
       <r>     7.5417     3.0511     9.0529 </r>
       <r>     7.6212     3.2852     9.3141 </r>
       <r>     7.7008     3.1116     9.5616 </r>
       <r>     7.7803     2.7643     9.7814 </r>
       <r>     7.8598     2.3816     9.9708 </r>
       <r>     7.9393     1.9666    10.1272 </r>
       <r>     8.0188     1.4686    10.2439 </r>
       <r>     8.0984     0.9229    10.3173 </r>
       <r>     8.1779     0.4813    10.3556 </r>
       <r>     8.2574     0.2723    10.3773 </r>
       <r>     8.3369     0.3020    10.4013 </r>
       <r>     8.4164     0.4677    10.4385 </r>
       <r>     8.4960     0.6053    10.4866 </r>
       <r>     8.5755     0.5852    10.5331 </r>
       <r>     8.6550     0.4165    10.5663 </r>
       <r>     8.7345     0.2180    10.5836 </r>
       <r>     8.8140     0.0840    10.5903 </r>
       <r>     8.8936     0.0252    10.5923 </r>
       <r>     8.9731     0.0152    10.5935 </r>
       <r>     9.0526     0.0529    10.5977 </r>
       <r>     9.1321     0.2061    10.6141 </r>
       <r>     9.2116     0.6271    10.6639 </r>
       <r>     9.2912     1.4565    10.7798 </r>
       <r>     9.3707     2.5539    10.9829 </r>
       <r>     9.4502     3.3519    11.2494 </r>
       <r>     9.5297     3.2719    11.5096 </r>
       <r>     9.6092     2.3652    11.6977 </r>
       <r>     9.6888     1.2625    11.7981 </r>
       <r>     9.7683     0.4966    11.8376 </r>
       <r>     9.8478     0.1438    11.8490 </r>
       <r>     9.9273     0.0306    11.8514 </r>
       <r>    10.0068     0.0048    11.8518 </r>
       <r>    10.0864     0.0005    11.8518 </r>
       <r>    10.1659     0.0000    11.8519 </r>
       <r>    10.2454     0.0000    11.8519 </r>
       <r>    10.3249     0.0000    11.8519 </r>
       <r>    10.4044     0.0000    11.8519 </r>
       <r>    10.4840     0.0000    11.8519 </r>
       <r>    10.5635     0.0000    11.8519 </r>
       <r>    10.6430     0.0000    11.8519 </r>
       <r>    10.7225     0.0000    11.8519 </r>
       <r>    10.8021     0.0000    11.8519 </r>
       <r>    10.8816     0.0000    11.8519 </r>
       <r>    10.9611     0.0000    11.8519 </r>
       <r>    11.0406     0.0000    11.8519 </r>
       <r>    11.1201     0.0000    11.8519 </r>
       <r>    11.1997     0.0001    11.8519 </r>
       <r>    11.2792     0.0014    11.8520 </r>
       <r>    11.3587     0.0104    11.8528 </r>
       <r>    11.4382     0.0559    11.8573 </r>
       <r>    11.5177     0.2211    11.8748 </r>
       <r>    11.5973     0.6421    11.9259 </r>
       <r>    11.6768     1.3699    12.0348 </r>
       <r>    11.7563     2.1475    12.2056 </r>
       <r>    11.8358     2.4744    12.4024 </r>
       <r>    11.9153     2.0962    12.5691 </r>
       <r>    11.9949     1.3121    12.6734 </r>
       <r>    12.0744     0.6426    12.7245 </r>
       <r>    12.1539     0.3906    12.7556 </r>
       <r>    12.2334     0.6230    12.8051 </r>
       <r>    12.3129     1.2792    12.9068 </r>
       <r>    12.3925     2.0683    13.0713 </r>
       <r>    12.4720     2.4726    13.2679 </r>
       <r>    12.5515     2.1747    13.4409 </r>
       <r>    12.6310     1.4142    13.5533 </r>
       <r>    12.7105     0.7221    13.6107 </r>
       <r>    12.7901     0.4552    13.6469 </r>
       <r>    12.8696     0.7225    13.7044 </r>
       <r>    12.9491     1.4942    13.8232 </r>
       <r>    13.0286     2.5494    14.0259 </r>
       <r>    13.1081     3.4758    14.3023 </r>
       <r>    13.1877     3.9127    14.6135 </r>
       <r>    13.2672     3.7196    14.9093 </r>
       <r>    13.3467     2.9569    15.1444 </r>
       <r>    13.4262     1.9116    15.2964 </r>
       <r>    13.5057     1.0308    15.3784 </r>
       <r>    13.5853     0.6478    15.4299 </r>
       <r>    13.6648     0.8049    15.4939 </r>
       <r>    13.7443     1.2673    15.5947 </r>
       <r>    13.8238     1.6224    15.7237 </r>
       <r>    13.9034     1.5461    15.8466 </r>
       <r>    13.9829     1.0846    15.9329 </r>
       <r>    14.0624     0.5592    15.9773 </r>
       <r>    14.1419     0.2118    15.9942 </r>
       <r>    14.2214     0.0590    15.9989 </r>
       <r>    14.3010     0.0120    15.9998 </r>
       <r>    14.3805     0.0018    16.0000 </r>
       <r>    14.4600     0.0002    16.0000 </r>
       <r>    14.5395     0.0000    16.0000 </r>
       <r>    14.6190     0.0000    16.0000 </r>
       <r>    14.6986     0.0000    16.0000 </r>
       <r>    14.7781     0.0000    16.0000 </r>
       <r>    14.8576     0.0000    16.0000 </r>
       <r>    14.9371     0.0000    16.0000 </r>
       <r>    15.0166     0.0000    16.0000 </r>
       <r>    15.0962     0.0000    16.0000 </r>
       <r>    15.1757     0.0000    16.0000 </r>
       <r>    15.2552     0.0000    16.0000 </r>
       <r>    15.3347     0.0000    16.0000 </r>
       <r>    15.4142     0.0000    16.0000 </r>
       <r>    15.4938     0.0000    16.0000 </r>
       <r>    15.5733     0.0000    16.0000 </r>
       <r>    15.6528     0.0000    16.0000 </r>
       <r>    15.7323     0.0000    16.0000 </r>
       <r>    15.8118     0.0000    16.0000 </r>
      </set>
     </set>
    </array>
   </total>
  </dos>
 </calculation>
 <structure name="finalpos" >
  <crystal>
   <varray name="basis" >
    <v>       0.00000000       2.71500000       2.71500000 </v>
    <v>       2.71500000       0.00000000       2.71500000 </v>
    <v>       2.71500000       2.71500000       0.00000000 </v>
   </varray>
   <i name="volume">     40.02575175 </i>
   <varray name="rec_basis" >
    <v>      -0.18416206       0.18416206       0.18416206 </v>
    <v>       0.18416206      -0.18416206       0.18416206 </v>
    <v>       0.18416206       0.18416206      -0.18416206 </v>
   </varray>
  </crystal>
  <varray name="positions" >
   <v>       0.50000000       0.50000000       0.50000000 </v>
   <v>       0.75000000       0.75000000       0.75000000 </v>
  </varray>
 </structure>
</modeling>
