   2   2   0   0
  0.2001288E+02  0.3839590E-09  0.3839590E-09  0.3839590E-09  0.5000000E-15
  1.000000000000000E-004
  CAR 
 unknown system                          
     16.22103249     -8.19458813  301      5.96440986      1.00000000
     -8.195  0.0000E+00  0.0000E+00
     -8.113  0.0000E+00  0.0000E+00
     -8.032  0.0000E+00  0.0000E+00
     -7.950  0.0000E+00  0.0000E+00
     -7.869  0.0000E+00  0.0000E+00
     -7.788  0.0000E+00  0.0000E+00
     -7.706  0.0000E+00  0.0000E+00
     -7.625  0.0000E+00  0.0000E+00
     -7.544  0.0000E+00  0.0000E+00
     -7.462  0.0000E+00  0.0000E+00
     -7.381  0.0000E+00  0.0000E+00
     -7.299  0.3711E-16  0.3020E-17
     -7.218  0.2983E-14  0.2458E-15
     -7.137  0.1754E-12  0.1452E-13
     -7.055  0.7437E-11  0.6198E-12
     -6.974  0.2277E-09  0.1915E-10
     -6.892  0.5033E-08  0.4287E-09
     -6.811  0.8038E-07  0.6970E-08
     -6.730  0.9279E-06  0.8249E-07
     -6.648  0.7746E-05  0.7129E-06
     -6.567  0.4678E-04  0.4520E-05
     -6.485  0.2045E-03  0.2117E-04
     -6.404  0.6473E-03  0.7385E-04
     -6.323  0.1484E-02  0.1946E-03
     -6.241  0.2469E-02  0.3956E-03
     -6.160  0.3004E-02  0.6400E-03
     -6.079  0.2837E-02  0.8709E-03
     -5.997  0.2835E-02  0.1102E-02
     -5.916  0.4931E-02  0.1503E-02
     -5.834  0.1097E-01  0.2396E-02
     -5.753  0.2059E-01  0.4072E-02
     -5.672  0.3006E-01  0.6518E-02
     -5.590  0.3461E-01  0.9335E-02
     -5.509  0.3223E-01  0.1196E-01
     -5.427  0.2446E-01  0.1395E-01
     -5.346  0.1492E-01  0.1516E-01
     -5.265  0.7387E-02  0.1576E-01
     -5.183  0.4232E-02  0.1611E-01
     -5.102  0.6588E-02  0.1664E-01
     -5.021  0.1490E-01  0.1786E-01
     -4.939  0.2674E-01  0.2003E-01
     -4.858  0.3513E-01  0.2289E-01
     -4.776  0.3420E-01  0.2567E-01
     -4.695  0.2755E-01  0.2792E-01
     -4.614  0.2742E-01  0.3015E-01
     -4.532  0.4371E-01  0.3371E-01
     -4.451  0.7210E-01  0.3957E-01
     -4.369  0.9285E-01  0.4713E-01
     -4.288  0.8797E-01  0.5429E-01
     -4.207  0.6077E-01  0.5924E-01
     -4.125  0.3058E-01  0.6172E-01
     -4.044  0.1125E-01  0.6264E-01
     -3.963  0.3378E-02  0.6291E-01
     -3.881  0.2738E-02  0.6314E-01
     -3.800  0.8726E-02  0.6385E-01
     -3.718  0.2509E-01  0.6589E-01
     -3.637  0.5272E-01  0.7018E-01
     -3.556  0.8042E-01  0.7673E-01
     -3.474  0.8966E-01  0.8402E-01
     -3.393  0.7578E-01  0.9019E-01
     -3.311  0.5683E-01  0.9481E-01
     -3.230  0.5331E-01  0.9915E-01
     -3.149  0.6481E-01  0.1044E+00
     -3.067  0.7235E-01  0.1103E+00
     -2.986  0.6183E-01  0.1153E+00
     -2.905  0.3870E-01  0.1185E+00
     -2.823  0.1764E-01  0.1199E+00
     -2.742  0.6203E-02  0.1204E+00
     -2.660  0.3310E-02  0.1207E+00
     -2.579  0.6711E-02  0.1213E+00
     -2.498  0.1575E-01  0.1225E+00
     -2.416  0.2766E-01  0.1248E+00
     -2.335  0.3525E-01  0.1277E+00
     -2.253  0.3258E-01  0.1303E+00
     -2.172  0.2199E-01  0.1321E+00
     -2.091  0.1162E-01  0.1330E+00
     -2.009  0.7758E-02  0.1337E+00
     -1.928  0.1220E-01  0.1347E+00
     -1.847  0.2286E-01  0.1365E+00
     -1.765  0.3313E-01  0.1392E+00
     -1.684  0.3501E-01  0.1421E+00
     -1.602  0.2683E-01  0.1443E+00
     -1.521  0.1493E-01  0.1455E+00
     -1.440  0.6269E-02  0.1460E+00
     -1.358  0.3382E-02  0.1463E+00
     -1.277  0.7422E-02  0.1469E+00
     -1.195  0.2251E-01  0.1487E+00
     -1.114  0.5320E-01  0.1530E+00
     -1.033  0.9456E-01  0.1607E+00
     -0.951  0.1272E+00  0.1711E+00
     -0.870  0.1308E+00  0.1817E+00
     -0.789  0.1057E+00  0.1903E+00
     -0.707  0.7351E-01  0.1963E+00
     -0.626  0.5420E-01  0.2007E+00
     -0.544  0.4762E-01  0.2046E+00
     -0.463  0.4138E-01  0.2079E+00
     -0.382  0.2923E-01  0.2103E+00
     -0.300  0.1554E-01  0.2116E+00
     -0.219  0.6099E-02  0.2121E+00
     -0.137  0.1809E-02  0.2122E+00
     -0.056  0.7986E-03  0.2123E+00
      0.025  0.2311E-02  0.2125E+00
      0.107  0.8541E-02  0.2132E+00
      0.188  0.2340E-01  0.2151E+00
      0.269  0.4646E-01  0.2189E+00
      0.351  0.6684E-01  0.2243E+00
      0.432  0.6967E-01  0.2300E+00
      0.514  0.5262E-01  0.2343E+00
      0.595  0.2880E-01  0.2366E+00
      0.676  0.1144E-01  0.2375E+00
      0.758  0.3473E-02  0.2378E+00
      0.839  0.1722E-02  0.2380E+00
      0.921  0.4110E-02  0.2383E+00
      1.002  0.1119E-01  0.2392E+00
      1.083  0.2258E-01  0.2410E+00
      1.165  0.3309E-01  0.2437E+00
      1.246  0.3535E-01  0.2466E+00
      1.328  0.2863E-01  0.2489E+00
      1.409  0.2199E-01  0.2507E+00
      1.490  0.2737E-01  0.2530E+00
      1.572  0.5007E-01  0.2570E+00
      1.653  0.8179E-01  0.2637E+00
      1.734  0.1021E+00  0.2720E+00
      1.816  0.9509E-01  0.2797E+00
      1.897  0.6659E-01  0.2852E+00
      1.979  0.3874E-01  0.2883E+00
      2.060  0.2957E-01  0.2907E+00
      2.141  0.4156E-01  0.2941E+00
      2.223  0.6216E-01  0.2992E+00
      2.304  0.7283E-01  0.3051E+00
      2.386  0.6688E-01  0.3105E+00
      2.467  0.5941E-01  0.3154E+00
      2.548  0.7164E-01  0.3212E+00
      2.630  0.1046E+00  0.3297E+00
      2.711  0.1349E+00  0.3407E+00
      2.792  0.1429E+00  0.3523E+00
      2.874  0.1393E+00  0.3637E+00
      2.955  0.1466E+00  0.3756E+00
      3.037  0.1607E+00  0.3887E+00
      3.118  0.1542E+00  0.4012E+00
      3.199  0.1162E+00  0.4107E+00
      3.281  0.6661E-01  0.4161E+00
      3.362  0.3114E-01  0.4186E+00
      3.444  0.2020E-01  0.4203E+00
      3.525  0.3119E-01  0.4228E+00
      3.606  0.5476E-01  0.4273E+00
      3.688  0.7665E-01  0.4335E+00
      3.769  0.8700E-01  0.4406E+00
      3.850  0.8959E-01  0.4479E+00
      3.932  0.9184E-01  0.4554E+00
      4.013  0.9131E-01  0.4628E+00
      4.095  0.8267E-01  0.4695E+00
      4.176  0.6792E-01  0.4750E+00
      4.257  0.5276E-01  0.4793E+00
      4.339  0.4267E-01  0.4828E+00
      4.420  0.4217E-01  0.4862E+00
      4.502  0.4928E-01  0.4903E+00
      4.583  0.5500E-01  0.4947E+00
      4.664  0.5438E-01  0.4992E+00
      4.746  0.5149E-01  0.5033E+00
      4.827  0.5068E-01  0.5075E+00
      4.908  0.5187E-01  0.5117E+00
      4.990  0.5444E-01  0.5161E+00
      5.071  0.5598E-01  0.5207E+00
      5.153  0.5050E-01  0.5248E+00
      5.234  0.3612E-01  0.5277E+00
      5.315  0.1957E-01  0.5293E+00
      5.397  0.8508E-02  0.5300E+00
      5.478  0.4768E-02  0.5304E+00
      5.560  0.5835E-02  0.5309E+00
      5.641  0.8166E-02  0.5315E+00
      5.722  0.8836E-02  0.5323E+00
      5.804  0.6986E-02  0.5328E+00
      5.885  0.4094E-02  0.5332E+00
      5.966  0.2205E-02  0.5333E+00
      6.048  0.2595E-02  0.5335E+00
      6.129  0.5887E-02  0.5340E+00
      6.211  0.1155E-01  0.5350E+00
      6.292  0.1675E-01  0.5363E+00
      6.373  0.1796E-01  0.5378E+00
      6.455  0.1553E-01  0.5391E+00
      6.536  0.1466E-01  0.5402E+00
      6.618  0.2019E-01  0.5419E+00
      6.699  0.3050E-01  0.5444E+00
      6.780  0.3831E-01  0.5475E+00
      6.862  0.3952E-01  0.5507E+00
      6.943  0.3897E-01  0.5539E+00
      7.024  0.4359E-01  0.5574E+00
      7.106  0.5268E-01  0.5617E+00
      7.187  0.5984E-01  0.5666E+00
      7.269  0.6340E-01  0.5717E+00
      7.350  0.6920E-01  0.5774E+00
      7.431  0.8004E-01  0.5839E+00
      7.513  0.8998E-01  0.5912E+00
      7.594  0.9558E-01  0.5990E+00
      7.676  0.1013E+00  0.6072E+00
      7.757  0.1050E+00  0.6158E+00
      7.838  0.9492E-01  0.6235E+00
      7.920  0.6814E-01  0.6291E+00
      8.001  0.3812E-01  0.6322E+00
      8.082  0.1870E-01  0.6337E+00
      8.164  0.1199E-01  0.6347E+00
      8.245  0.1272E-01  0.6357E+00
      8.327  0.1722E-01  0.6371E+00
      8.408  0.2522E-01  0.6391E+00
      8.489  0.3487E-01  0.6420E+00
      8.571  0.4111E-01  0.6453E+00
      8.652  0.4268E-01  0.6488E+00
      8.734  0.4637E-01  0.6526E+00
      8.815  0.6065E-01  0.6575E+00
      8.896  0.8904E-01  0.6648E+00
      8.978  0.1278E+00  0.6752E+00
      9.059  0.1615E+00  0.6883E+00
      9.141  0.1671E+00  0.7019E+00
      9.222  0.1387E+00  0.7132E+00
      9.303  0.1008E+00  0.7214E+00
      9.385  0.8557E-01  0.7284E+00
      9.466  0.1005E+00  0.7365E+00
      9.547  0.1269E+00  0.7469E+00
      9.629  0.1442E+00  0.7586E+00
      9.710  0.1466E+00  0.7705E+00
      9.792  0.1389E+00  0.7818E+00
      9.873  0.1305E+00  0.7925E+00
      9.954  0.1308E+00  0.8031E+00
     10.036  0.1389E+00  0.8144E+00
     10.117  0.1440E+00  0.8261E+00
     10.199  0.1395E+00  0.8375E+00
     10.280  0.1316E+00  0.8482E+00
     10.361  0.1347E+00  0.8591E+00
     10.443  0.1572E+00  0.8719E+00
     10.524  0.1828E+00  0.8868E+00
     10.605  0.1784E+00  0.9013E+00
     10.687  0.1338E+00  0.9122E+00
     10.768  0.7554E-01  0.9184E+00
     10.850  0.3626E-01  0.9213E+00
     10.931  0.2752E-01  0.9236E+00
     11.012  0.4320E-01  0.9271E+00
     11.094  0.6851E-01  0.9327E+00
     11.175  0.8630E-01  0.9397E+00
     11.257  0.8787E-01  0.9468E+00
     11.338  0.7765E-01  0.9532E+00
     11.419  0.6393E-01  0.9584E+00
     11.501  0.5015E-01  0.9624E+00
     11.582  0.3609E-01  0.9654E+00
     11.663  0.2222E-01  0.9672E+00
     11.745  0.1097E-01  0.9681E+00
     11.826  0.4152E-02  0.9684E+00
     11.908  0.1171E-02  0.9685E+00
     11.989  0.2425E-03  0.9685E+00
     12.070  0.3661E-04  0.9685E+00
     12.152  0.4011E-05  0.9685E+00
     12.233  0.3183E-06  0.9685E+00
     12.315  0.1828E-07  0.9685E+00
     12.396  0.1178E-08  0.9685E+00
     12.477  0.1193E-07  0.9685E+00
     12.559  0.2433E-06  0.9685E+00
     12.640  0.3594E-05  0.9685E+00
     12.721  0.3840E-04  0.9685E+00
     12.803  0.2972E-03  0.9686E+00
     12.884  0.1669E-02  0.9687E+00
     12.966  0.6827E-02  0.9693E+00
     13.047  0.2052E-01  0.9709E+00
     13.128  0.4602E-01  0.9747E+00
     13.210  0.7938E-01  0.9811E+00
     13.291  0.1102E+00  0.9901E+00
     13.373  0.1291E+00  0.1001E+01
     13.454  0.1307E+00  0.1011E+01
     13.535  0.1147E+00  0.1021E+01
     13.617  0.8922E-01  0.1028E+01
     13.698  0.6550E-01  0.1033E+01
     13.779  0.4696E-01  0.1037E+01
     13.861  0.3277E-01  0.1040E+01
     13.942  0.2688E-01  0.1042E+01
     14.024  0.3458E-01  0.1045E+01
     14.105  0.5251E-01  0.1049E+01
     14.186  0.6690E-01  0.1054E+01
     14.268  0.6487E-01  0.1060E+01
     14.349  0.4700E-01  0.1063E+01
     14.431  0.2533E-01  0.1066E+01
     14.512  0.1012E-01  0.1066E+01
     14.593  0.2986E-02  0.1067E+01
     14.675  0.6486E-03  0.1067E+01
     14.756  0.1033E-03  0.1067E+01
     14.837  0.1202E-04  0.1067E+01
     14.919  0.1019E-05  0.1067E+01
     15.000  0.6285E-07  0.1067E+01
     15.082  0.2811E-08  0.1067E+01
     15.163  0.9109E-10  0.1067E+01
     15.244  0.2135E-11  0.1067E+01
     15.326  0.3618E-13  0.1067E+01
     15.407  0.4540E-15  0.1067E+01
     15.489  0.0000E+00  0.1067E+01
     15.570  0.0000E+00  0.1067E+01
     15.651  0.0000E+00  0.1067E+01
     15.733  0.0000E+00  0.1067E+01
     15.814  0.0000E+00  0.1067E+01
     15.895  0.0000E+00  0.1067E+01
     15.977  0.0000E+00  0.1067E+01
     16.058  0.0000E+00  0.1067E+01
     16.140  0.0000E+00  0.1067E+01
     16.221  0.0000E+00  0.1067E+01
