<?xml version="1.0" encoding="ISO-8859-1"?>
<modeling>
 <generator>
  <i name="program" type="string">vasp </i>
  <i name="version" type="string">5.4.4.18Apr17-6-g9f103f2a35  </i>
  <i name="subversion" type="string">(build Dec 09 2018 21:25:21) complex            parallel </i>
  <i name="platform" type="string">IFC18.0.1.163_CrayMPICH7.7.0_MKL18.0.1.163 </i>
  <i name="date" type="string">2019 03 20 </i>
  <i name="time" type="string">09:43:28 </i>
 </generator>
 <incar>
  <i type="string" name="PREC">normal</i>
  <i type="int" name="IBRION">     2</i>
  <i name="EDIFF">      0.00040000</i>
  <i name="EDIFFG">     -0.01000000</i>
  <i type="int" name="NSW">    15</i>
  <i type="int" name="ISIF">     3</i>
  <i name="ENCUT">    150.00000000</i>
  <i type="int" name="NBANDS">     8</i>
  <i type="logical" name="LREAL"> F  </i>
  <i type="int" name="ISMEAR">     0</i>
  <i name="SIGMA">      0.20000000</i>
  <v type="int" name="KPOINT_BSE">    -1     0     0     0</v>
 </incar>
 <structure name="primitive_cell" >
  <crystal>
   <varray name="basis" >
    <v>       0.00000000       2.71500000       2.71500000 </v>
    <v>       2.71500000       0.00000000       2.71500000 </v>
    <v>       2.71500000       2.71500000       0.00000000 </v>
   </varray>
   <i name="volume">     40.02575175 </i>
   <varray name="rec_basis" >
    <v>      -0.18416206       0.18416206       0.18416206 </v>
    <v>       0.18416206      -0.18416206       0.18416206 </v>
    <v>       0.18416206       0.18416206      -0.18416206 </v>
   </varray>
  </crystal>
  <varray name="positions" >
   <v>      -0.50000000      -0.50000000      -0.50000000 </v>
   <v>      -0.25000000      -0.25000000      -0.25000000 </v>
  </varray>
 </structure>
 <varray name="primitive_index" >
  <v type="int" >        1 </v>
  <v type="int" >        2 </v>
 </varray>
 <kpoints>
  <generation param="Monkhorst-Pack">
   <v type="int" name="divisions">       5        5        5 </v>
   <v name="usershift">      0.00000000       0.00000000       0.00000000 </v>
   <v name="genvec1">      0.20000000       0.00000000      -0.00000000 </v>
   <v name="genvec2">      0.00000000       0.20000000       0.00000000 </v>
   <v name="genvec3">     -0.00000000      -0.00000000       0.20000000 </v>
   <v name="shift">      0.00000000       0.00000000       0.00000000 </v>
  </generation>
  <varray name="kpointlist" >
   <v>       0.00000000       0.00000000       0.00000000 </v>
   <v>       0.20000000       0.00000000       0.00000000 </v>
   <v>       0.40000000       0.00000000       0.00000000 </v>
   <v>       0.20000000       0.20000000       0.00000000 </v>
   <v>       0.40000000       0.20000000       0.00000000 </v>
   <v>      -0.40000000       0.20000000       0.00000000 </v>
   <v>      -0.20000000       0.20000000       0.00000000 </v>
   <v>       0.40000000       0.40000000       0.00000000 </v>
   <v>      -0.40000000       0.40000000       0.00000000 </v>
   <v>      -0.40000000       0.40000000       0.20000000 </v>
  </varray>
  <varray name="weights" >
   <v>       0.00800000 </v>
   <v>       0.06400000 </v>
   <v>       0.06400000 </v>
   <v>       0.04800000 </v>
   <v>       0.19200000 </v>
   <v>       0.19200000 </v>
   <v>       0.09600000 </v>
   <v>       0.04800000 </v>
   <v>       0.09600000 </v>
   <v>       0.19200000 </v>
  </varray>
 </kpoints>
 <parameters>
  <separator name="general" >
   <i type="string" name="SYSTEM">unknown system</i>
   <i type="logical" name="LCOMPAT"> F  </i>
  </separator>
  <separator name="electronic" >
   <i type="string" name="PREC">normal</i>
   <i name="ENMAX">    150.00000000</i>
   <i name="ENAUG">    322.06900000</i>
   <i name="EDIFF">      0.00040000</i>
   <i type="int" name="IALGO">    38</i>
   <i type="int" name="IWAVPR">    11</i>
   <i type="int" name="NBANDS">     8</i>
   <i name="NELECT">      8.00000000</i>
   <i type="int" name="TURBO">     0</i>
   <i type="int" name="IRESTART">     0</i>
   <i type="int" name="NREBOOT">     0</i>
   <i type="int" name="NMIN">     0</i>
   <i name="EREF">      0.00000000</i>
   <separator name="electronic smearing" >
    <i type="int" name="ISMEAR">     0</i>
    <i name="SIGMA">      0.20000000</i>
    <i name="KSPACING">      0.50000000</i>
    <i type="logical" name="KGAMMA"> T  </i>
   </separator>
   <separator name="electronic projectors" >
    <i type="logical" name="LREAL"> F  </i>
    <v name="ROPT">      0.00000000</v>
    <i type="int" name="LMAXPAW">  -100</i>
    <i type="int" name="LMAXMIX">     2</i>
    <i type="logical" name="NLSPLINE"> F  </i>
   </separator>
   <separator name="electronic startup" >
    <i type="int" name="ISTART">     0</i>
    <i type="int" name="ICHARG">     2</i>
    <i type="int" name="INIWAV">     1</i>
   </separator>
   <separator name="electronic spin" >
    <i type="int" name="ISPIN">     1</i>
    <i type="logical" name="LNONCOLLINEAR"> F  </i>
    <v name="MAGMOM">      1.00000000      1.00000000</v>
    <i name="NUPDOWN">     -1.00000000</i>
    <i type="logical" name="LSORBIT"> F  </i>
    <v name="SAXIS">      0.00000000      0.00000000      1.00000000</v>
    <i type="logical" name="LSPIRAL"> F  </i>
    <v name="QSPIRAL">      0.00000000      0.00000000      0.00000000</v>
    <i type="logical" name="LZEROZ"> F  </i>
   </separator>
   <separator name="electronic exchange-correlation" >
    <i type="logical" name="LASPH"> F  </i>
    <i type="logical" name="LMETAGGA"> F  </i>
   </separator>
   <separator name="electronic convergence" >
    <i type="int" name="NELM">    60</i>
    <i type="int" name="NELMDL">    -5</i>
    <i type="int" name="NELMIN">     2</i>
    <i name="ENINI">    150.00000000</i>
    <separator name="electronic convergence detail" >
     <i type="logical" name="LDIAG"> T  </i>
     <i type="logical" name="LSUBROT"> F  </i>
     <i name="WEIMIN">      0.00100000</i>
     <i name="EBREAK">      0.00001250</i>
     <i name="DEPER">      0.30000000</i>
     <i type="int" name="NRMM">     4</i>
     <i name="TIME">      0.40000000</i>
    </separator>
   </separator>
   <separator name="electronic mixer" >
    <i name="AMIX">      0.40000000</i>
    <i name="BMIX">      1.00000000</i>
    <i name="AMIN">      0.10000000</i>
    <i name="AMIX_MAG">      1.60000000</i>
    <i name="BMIX_MAG">      1.00000000</i>
    <separator name="electronic mixer details" >
     <i type="int" name="IMIX">     4</i>
     <i type="logical" name="MIXFIRST"> F  </i>
     <i type="int" name="MAXMIX">   -45</i>
     <i name="WC">    100.00000000</i>
     <i type="int" name="INIMIX">     1</i>
     <i type="int" name="MIXPRE">     1</i>
     <i type="int" name="MREMOVE">     5</i>
    </separator>
   </separator>
   <separator name="electronic dipolcorrection" >
    <i type="logical" name="LDIPOL"> F  </i>
    <i type="logical" name="LMONO"> F  </i>
    <i type="int" name="IDIPOL">     0</i>
    <i name="EPSILON">      1.00000000</i>
    <v name="DIPOL">   -100.00000000   -100.00000000   -100.00000000</v>
    <i name="EFIELD">      0.00000000</i>
   </separator>
  </separator>
  <separator name="grids" >
   <i type="int" name="NGX">    12</i>
   <i type="int" name="NGY">    12</i>
   <i type="int" name="NGZ">    12</i>
   <i type="int" name="NGXF">    24</i>
   <i type="int" name="NGYF">    24</i>
   <i type="int" name="NGZF">    24</i>
   <i type="logical" name="ADDGRID"> F  </i>
  </separator>
  <separator name="ionic" >
   <i type="int" name="NSW">    15</i>
   <i type="int" name="IBRION">     2</i>
   <i type="int" name="MDALGO">     0</i>
   <i type="int" name="ISIF">     3</i>
   <i name="PSTRESS">      0.00000000</i>
   <i name="EDIFFG">     -0.01000000</i>
   <i type="int" name="NFREE">     1</i>
   <i name="POTIM">      0.50000000</i>
   <i name="SMASS">     -3.00000000</i>
   <i name="SCALEE">      1.00000000</i>
  </separator>
  <separator name="ionic md" >
   <i name="TEBEG">      0.00010000</i>
   <i name="TEEND">      0.00010000</i>
   <i type="int" name="NBLOCK">     1</i>
   <i type="int" name="KBLOCK">    15</i>
   <i type="int" name="NPACO">   256</i>
   <i name="APACO">     16.00000000</i>
  </separator>
  <separator name="symmetry" >
   <i type="int" name="ISYM">     2</i>
   <i name="SYMPREC">      0.00001000</i>
  </separator>
  <separator name="dos" >
   <i type="int" name="LORBIT">     0</i>
   <v name="RWIGS">     -1.00000000</v>
   <i type="int" name="NEDOS">   301</i>
   <i name="EMIN">     10.00000000</i>
   <i name="EMAX">    -10.00000000</i>
   <i name="EFERMI">      0.00000000</i>
  </separator>
  <separator name="writing" >
   <i type="int" name="NWRITE">     2</i>
   <i type="logical" name="LWAVE"> T  </i>
   <i type="logical" name="LDOWNSAMPLE"> F  </i>
   <i type="logical" name="LCHARG"> T  </i>
   <i type="logical" name="LPARD"> F  </i>
   <i type="logical" name="LVTOT"> F  </i>
   <i type="logical" name="LVHAR"> F  </i>
   <i type="logical" name="LELF"> F  </i>
   <i type="logical" name="LOPTICS"> F  </i>
   <v name="STM">      0.00000000      0.00000000      0.00000000      0.00000000      0.00000000      0.00000000      0.00000000</v>
  </separator>
  <separator name="performance" >
   <i type="int" name="NPAR">     8</i>
   <i type="int" name="NSIM">     4</i>
   <i type="int" name="NBLK">    -1</i>
   <i type="logical" name="LPLANE"> T  </i>
   <i type="logical" name="LSCALAPACK"> T  </i>
   <i type="logical" name="LSCAAWARE"> F  </i>
   <i type="logical" name="LSCALU"> F  </i>
   <i type="logical" name="LASYNC"> F  </i>
   <i type="logical" name="LORBITALREAL"> F  </i>
  </separator>
  <separator name="miscellaneous" >
   <i type="int" name="IDIOT">     3</i>
   <i type="int" name="ISPECIAL">     0</i>
   <i type="logical" name="LMUSIC"> F  </i>
   <v name="POMASS">     28.08500000</v>
   <v name="DARWINR">      0.00000000</v>
   <v name="DARWINV">      1.00000000</v>
   <i type="logical" name="LCORR"> T  </i>
  </separator>
  <i type="logical" name="GGA_COMPAT"> T  </i>
  <i type="logical" name="LBERRY"> F  </i>
  <i type="int" name="ICORELEVEL">     0</i>
  <i type="logical" name="LDAU"> F  </i>
  <i type="int" name="I_CONSTRAINED_M">     0</i>
  <separator name="electronic exchange-correlation" >
   <i type="string" name="GGA">--</i>
   <i type="int" name="VOSKOWN">     0</i>
   <i type="logical" name="LHFCALC"> F  </i>
   <i type="string" name="PRECFOCK"></i>
   <i type="logical" name="LSYMGRAD"> F  </i>
   <i type="logical" name="LHFONE"> F  </i>
   <i type="logical" name="LRHFCALC"> F  </i>
   <i type="logical" name="LTHOMAS"> F  </i>
   <i type="logical" name="LMODELHF"> F  </i>
   <i name="ENCUT4O">     -1.00000000</i>
   <i type="int" name="EXXOEP">     0</i>
   <i type="int" name="FOURORBIT">     0</i>
   <i name="AEXX">      0.00000000</i>
   <i name="HFALPHA">      0.00000000</i>
   <i name="MCALPHA">      0.00000000</i>
   <i name="ALDAX">      1.00000000</i>
   <i name="AGGAX">      1.00000000</i>
   <i name="ALDAC">      1.00000000</i>
   <i name="AGGAC">      1.00000000</i>
   <i type="int" name="NKREDX">     1</i>
   <i type="int" name="NKREDY">     1</i>
   <i type="int" name="NKREDZ">     1</i>
   <i type="logical" name="SHIFTRED"> F  </i>
   <i type="logical" name="ODDONLY"> F  </i>
   <i type="logical" name="EVENONLY"> F  </i>
   <i type="int" name="LMAXFOCK">     0</i>
   <i type="int" name="NMAXFOCKAE">     0</i>
   <i type="logical" name="LFOCKAEDFT"> F  </i>
   <i name="HFSCREEN">      0.00000000</i>
   <i name="HFSCREENC">      0.00000000</i>
   <i type="int" name="NBANDSGWLOW">     0</i>
  </separator>
  <separator name="vdW DFT" >
   <i type="logical" name="LUSE_VDW"> F  </i>
   <i name="Zab_VDW">     -0.84910000</i>
   <i name="PARAM1">      0.12340000</i>
   <i name="PARAM2">      1.00000000</i>
   <i name="PARAM3">      0.00000000</i>
  </separator>
  <separator name="model GW" >
   <i type="int" name="MODEL_GW">     0</i>
   <i name="MODEL_EPS0">     12.00772552</i>
   <i name="MODEL_ALPHA">      1.00000000</i>
  </separator>
  <separator name="linear response parameters" >
   <i type="logical" name="LEPSILON"> F  </i>
   <i type="logical" name="LRPA"> F  </i>
   <i type="logical" name="LNABLA"> F  </i>
   <i type="logical" name="LVEL"> F  </i>
   <i type="int" name="KINTER">     0</i>
   <i name="CSHIFT">      0.10000000</i>
   <i name="OMEGAMAX">     -1.00000000</i>
   <i name="DEG_THRESHOLD">      0.00200000</i>
   <i name="RTIME">     -0.10000000</i>
   <i name="WPLASMAI">      0.00000000</i>
   <v name="DFIELD">      0.00000000      0.00000000      0.00000000</v>
   <v name="WPLASMA">      0.00000000      0.00000000      0.00000000      0.00000000      0.00000000      0.00000000      0.00000000      0.00000000      0.00000000</v>
  </separator>
  <separator name="orbital magnetization" >
   <i type="logical" name="NUCIND"> F  </i>
   <v name="MAGPOS">      0.00000000      0.00000000      0.00000000</v>
   <i type="logical" name="LNICSALL"> T  </i>
   <i type="logical" name="ORBITALMAG"> F  </i>
   <i type="logical" name="LMAGBLOCH"> F  </i>
   <i type="logical" name="LCHIMAG"> F  </i>
   <i type="logical" name="LGAUGE"> T  </i>
   <i type="int" name="MAGATOM">     0</i>
   <v name="MAGDIPOL">      0.00000000      0.00000000      0.00000000</v>
   <v name="AVECCONST">      0.00000000      0.00000000      0.00000000</v>
  </separator>
  <separator name="response functions" >
   <i type="logical" name="LADDER"> F  </i>
   <i type="logical" name="LRPAFORCE"> F  </i>
   <i type="logical" name="LFXC"> F  </i>
   <i type="logical" name="LHARTREE"> T  </i>
   <i type="int" name="IBSE">     0</i>
   <v type="int" name="KPOINT">    -1     0     0     0</v>
   <i type="logical" name="LTCTE"> F  </i>
   <i type="logical" name="LTETE"> F  </i>
   <i type="logical" name="LTRIPLET"> F  </i>
   <i type="logical" name="LFXCEPS"> F  </i>
   <i type="logical" name="LFXHEG"> F  </i>
   <i type="int" name="NATURALO">     2</i>
   <i type="logical" name="L2ORDER"> F  </i>
   <i type="logical" name="LMP2LT"> F  </i>
   <i type="logical" name="LUSEW"> F  </i>
   <i name="ENCUTGW">     -2.00000000</i>
   <i name="ENCUTGWSOFT">     -2.00000000</i>
   <i name="ENCUTLF">     -1.00000000</i>
   <i type="int" name="LMAXMP2">    -1</i>
   <i name="SCISSOR">      0.00000000</i>
   <i type="int" name="NOMEGA">     0</i>
   <i type="int" name="NOMEGAR">     0</i>
   <i type="int" name="NBANDSGW">    -1</i>
   <i type="int" name="NBANDSO">    -1</i>
   <i type="int" name="NBANDSV">    -1</i>
   <i type="int" name="NELM">     1</i>
   <i type="int" name="NELMHF">     1</i>
   <i type="int" name="DIM">     3</i>
   <i type="int" name="ANTIRES">     0</i>
   <i name="OMEGAMAX">    -30.00000000</i>
   <i name="OMEGAMIN">    -30.00000000</i>
   <i name="OMEGATL">   -200.00000000</i>
   <i type="int" name="OMEGAGRID">   140</i>
   <i name="CSHIFT">     -0.10000000</i>
   <i type="logical" name="SELFENERGY"> F  </i>
   <i type="logical" name="LSPECTRAL"> F  </i>
   <i type="logical" name="LSPECTRALGW"> F  </i>
   <i type="logical" name="LSINGLES"> F  </i>
   <i type="logical" name="LFERMIGW"> F  </i>
   <i type="logical" name="ODDONLYGW"> F  </i>
   <i type="logical" name="EVENONLYGW"> F  </i>
   <i type="int" name="NKREDLFX">     1</i>
   <i type="int" name="NKREDLFY">     1</i>
   <i type="int" name="NKREDLFZ">     1</i>
   <i type="int" name="MAXMEM">  2800</i>
   <i type="int" name="TELESCOPE">     0</i>
   <i type="int" name="TAUPAR">     1</i>
   <i type="int" name="OMEGAPAR">    -1</i>
   <i name="LAMBDA">      1.00000000</i>
  </separator>
  <separator name="External order field" >
   <i name="OFIELD_KAPPA">      0.00000000</i>
   <v name="OFIELD_K">      0.00000000      0.00000000      0.00000000</v>
   <i name="OFIELD_Q6_NEAR">      0.00000000</i>
   <i name="OFIELD_Q6_FAR">      0.00000000</i>
   <i name="OFIELD_A">      0.00000000</i>
  </separator>
 </parameters>
 <atominfo>
  <atoms>       2 </atoms>
  <types>       1 </types>
  <array name="atoms" >
   <dimension dim="1">ion</dimension>
   <field type="string">element</field>
   <field type="int">atomtype</field>
   <set>
    <rc><c>Si</c><c>   1</c></rc>
    <rc><c>Si</c><c>   1</c></rc>
   </set>
  </array>
  <array name="atomtypes" >
   <dimension dim="1">type</dimension>
   <field type="int">atomspertype</field>
   <field type="string">element</field>
   <field>mass</field>
   <field>valence</field>
   <field type="string">pseudopotential</field>
   <set>
    <rc><c>   2</c><c>Si</c><c>     28.08500000</c><c>      4.00000000</c><c> PAW_PBE Si 05Jan2001                   </c></rc>
   </set>
  </array>
 </atominfo>
 <structure name="initialpos" >
  <crystal>
   <varray name="basis" >
    <v>       0.00000000       2.71500000       2.71500000 </v>
    <v>       2.71500000       0.00000000       2.71500000 </v>
    <v>       2.71500000       2.71500000       0.00000000 </v>
   </varray>
   <i name="volume">     40.02575175 </i>
   <varray name="rec_basis" >
    <v>      -0.18416206       0.18416206       0.18416206 </v>
    <v>       0.18416206      -0.18416206       0.18416206 </v>
    <v>       0.18416206       0.18416206      -0.18416206 </v>
   </varray>
  </crystal>
  <varray name="positions" >
   <v>       0.50000000       0.50000000       0.50000000 </v>
   <v>       0.75000000       0.75000000       0.75000000 </v>
  </varray>
 </structure>
 <calculation>
  <scstep>
   <time name="dav">    0.09    0.09</time>
   <time name="total">    0.14    0.16</time>
   <energy>
    <i name="alphaZ">      3.36414203 </i>
    <i name="ewald">   -228.56352493 </i>
    <i name="hartreedc">    -11.00108243 </i>
    <i name="XCdc">    -18.60155909 </i>
    <i name="pawpsdc">     65.95520812 </i>
    <i name="pawaedc">    -30.76852678 </i>
    <i name="eentropy">     -0.01080193 </i>
    <i name="bandstr">      8.25247327 </i>
    <i name="atom">    206.09183643 </i>
    <i name="e_fr_energy">     -5.28183533 </i>
    <i name="e_wo_entrp">     -5.27103339 </i>
    <i name="e_0_energy">     -5.27643436 </i>
   </energy>
  </scstep>
  <scstep>
   <time name="dav">    0.14    0.14</time>
   <time name="total">    0.14    0.15</time>
   <energy>
    <i name="e_fr_energy">    -10.83187025 </i>
    <i name="e_wo_entrp">    -10.83181695 </i>
    <i name="e_0_energy">    -10.83184360 </i>
   </energy>
  </scstep>
  <scstep>
   <time name="dav">    0.08    0.09</time>
   <time name="total">    0.08    0.09</time>
   <energy>
    <i name="e_fr_energy">    -10.87015353 </i>
    <i name="e_wo_entrp">    -10.87010986 </i>
    <i name="e_0_energy">    -10.87013170 </i>
   </energy>
  </scstep>
  <scstep>
   <time name="dav">    0.15    0.15</time>
   <time name="total">    0.15    0.15</time>
   <energy>
    <i name="e_fr_energy">    -10.87024797 </i>
    <i name="e_wo_entrp">    -10.87020431 </i>
    <i name="e_0_energy">    -10.87022614 </i>
   </energy>
  </scstep>
  <scstep>
   <time name="dav">    0.08    0.09</time>
   <time name="total">    0.09    0.10</time>
   <energy>
    <i name="e_fr_energy">    -10.87024806 </i>
    <i name="e_wo_entrp">    -10.87020440 </i>
    <i name="e_0_energy">    -10.87022623 </i>
   </energy>
  </scstep>
  <scstep>
   <time name="dav">    0.08    0.08</time>
   <time name="total">    0.12    0.12</time>
   <energy>
    <i name="e_fr_energy">    -10.74000031 </i>
    <i name="e_wo_entrp">    -10.73980043 </i>
    <i name="e_0_energy">    -10.73990037 </i>
   </energy>
  </scstep>
  <scstep>
   <time name="dav">    0.08    0.08</time>
   <time name="total">    0.11    0.12</time>
   <energy>
    <i name="e_fr_energy">    -10.67891431 </i>
    <i name="e_wo_entrp">    -10.67794331 </i>
    <i name="e_0_energy">    -10.67842881 </i>
   </energy>
  </scstep>
  <scstep>
   <time name="dav">    0.08    0.08</time>
   <time name="total">    0.11    0.12</time>
   <energy>
    <i name="e_fr_energy">    -10.68034978 </i>
    <i name="e_wo_entrp">    -10.67954412 </i>
    <i name="e_0_energy">    -10.67994695 </i>
   </energy>
  </scstep>
  <scstep>
   <time name="dav">    0.06    0.06</time>
   <time name="total">    0.09    0.09</time>
   <energy>
    <i name="alphaZ">      3.36414203 </i>
    <i name="ewald">   -228.56352493 </i>
    <i name="hartreedc">    -15.00821355 </i>
    <i name="XCdc">    -17.90712954 </i>
    <i name="pawpsdc">     76.78370153 </i>
    <i name="pawaedc">    -41.83837222 </i>
    <i name="eentropy">     -0.00080475 </i>
    <i name="bandstr">      6.39791812 </i>
    <i name="atom">    206.09183643 </i>
    <i name="e_fr_energy">    -10.68044688 </i>
    <i name="e_wo_entrp">    -10.67964213 </i>
    <i name="e_0_energy">    -10.68004451 </i>
   </energy>
  </scstep>
  <structure>
   <crystal>
    <varray name="basis" >
     <v>       0.00000000       2.71500000       2.71500000 </v>
     <v>       2.71500000       0.00000000       2.71500000 </v>
     <v>       2.71500000       2.71500000       0.00000000 </v>
    </varray>
    <i name="volume">     40.02575175 </i>
    <varray name="rec_basis" >
     <v>      -0.18416206       0.18416206       0.18416206 </v>
     <v>       0.18416206      -0.18416206       0.18416206 </v>
     <v>       0.18416206       0.18416206      -0.18416206 </v>
    </varray>
   </crystal>
   <varray name="positions" >
    <v>       0.50000000       0.50000000       0.50000000 </v>
    <v>       0.75000000       0.75000000       0.75000000 </v>
   </varray>
  </structure>
  <varray name="forces" >
   <v>       0.00000000       0.00000000       0.00000000 </v>
   <v>      -0.00000000      -0.00000000      -0.00000000 </v>
  </varray>
  <varray name="stress" >
   <v>      21.51348737      -0.00000000       0.00000000 </v>
   <v>      -0.00000000      21.51348737       0.00000000 </v>
   <v>       0.00000000       0.00000000      21.51348737 </v>
  </varray>
  <energy>
   <i name="e_fr_energy">    -10.68044688 </i>
   <i name="e_wo_entrp">    -10.68004451 </i>
   <i name="e_0_energy">     -0.00080475 </i>
  </energy>
  <time name="totalsc">    1.45    1.65</time>
 </calculation>
 <calculation>
  <scstep>
   <time name="dav">    0.09    0.09</time>
   <time name="total">    0.12    0.13</time>
   <energy>
    <i name="alphaZ">      3.23662374 </i>
    <i name="ewald">   -225.63833669 </i>
    <i name="hartreedc">    -14.82701266 </i>
    <i name="XCdc">    -18.09673013 </i>
    <i name="pawpsdc">     76.77925653 </i>
    <i name="pawaedc">    -41.83488683 </i>
    <i name="eentropy">     -0.00028411 </i>
    <i name="bandstr">      3.59801987 </i>
    <i name="atom">    206.09183643 </i>
    <i name="e_fr_energy">    -10.69151386 </i>
    <i name="e_wo_entrp">    -10.69122975 </i>
    <i name="e_0_energy">    -10.69137180 </i>
   </energy>
  </scstep>
  <scstep>
   <time name="dav">    0.09    0.09</time>
   <time name="total">    0.12    0.13</time>
   <energy>
    <i name="e_fr_energy">    -10.68618338 </i>
    <i name="e_wo_entrp">    -10.68582290 </i>
    <i name="e_0_energy">    -10.68600314 </i>
   </energy>
  </scstep>
  <scstep>
   <time name="dav">    0.09    0.09</time>
   <time name="total">    0.12    0.13</time>
   <energy>
    <i name="e_fr_energy">    -10.68336355 </i>
    <i name="e_wo_entrp">    -10.68288086 </i>
    <i name="e_0_energy">    -10.68312220 </i>
   </energy>
  </scstep>
  <scstep>
   <time name="dav">    0.04    0.04</time>
   <time name="total">    0.07    0.08</time>
   <energy>
    <i name="alphaZ">      3.23662374 </i>
    <i name="ewald">   -225.63833669 </i>
    <i name="hartreedc">    -15.47280638 </i>
    <i name="XCdc">    -18.08318686 </i>
    <i name="pawpsdc">     75.49832143 </i>
    <i name="pawaedc">    -40.51942024 </i>
    <i name="eentropy">     -0.00047414 </i>
    <i name="bandstr">      4.20409244 </i>
    <i name="atom">    206.09183643 </i>
    <i name="e_fr_energy">    -10.68335027 </i>
    <i name="e_wo_entrp">    -10.68287614 </i>
    <i name="e_0_energy">    -10.68311321 </i>
   </energy>
  </scstep>
  <structure>
   <crystal>
    <varray name="basis" >
     <v>       0.00000000       2.75019741       2.75019741 </v>
     <v>       2.75019741      -0.00000000       2.75019741 </v>
     <v>       2.75019741       2.75019741       0.00000000 </v>
    </varray>
    <i name="volume">     41.60270832 </i>
    <varray name="rec_basis" >
     <v>      -0.18180513       0.18180513       0.18180513 </v>
     <v>       0.18180513      -0.18180513       0.18180513 </v>
     <v>       0.18180513       0.18180513      -0.18180513 </v>
    </varray>
   </crystal>
   <varray name="positions" >
    <v>       0.50000000       0.50000000       0.50000000 </v>
    <v>       0.75000000       0.75000000       0.75000000 </v>
   </varray>
  </structure>
  <varray name="forces" >
   <v>      -0.00000000      -0.00000000      -0.00000000 </v>
   <v>       0.00000000       0.00000000       0.00000000 </v>
  </varray>
  <varray name="stress" >
   <v>     -14.00124873       0.00000000      -0.00000000 </v>
   <v>       0.00000000     -14.00124873       0.00000000 </v>
   <v>      -0.00000000      -0.00000000     -14.00124873 </v>
  </varray>
  <energy>
   <i name="e_fr_energy">    -10.68335027 </i>
   <i name="e_wo_entrp">    -10.68311321 </i>
   <i name="e_0_energy">     -0.00047414 </i>
  </energy>
  <time name="totalsc">    0.57    0.65</time>
 </calculation>
 <calculation>
  <scstep>
   <time name="dav">    0.08    0.08</time>
   <time name="total">    0.12    0.12</time>
   <energy>
    <i name="alphaZ">      3.28728872 </i>
    <i name="ewald">   -226.80960079 </i>
    <i name="hartreedc">    -15.55683898 </i>
    <i name="XCdc">    -18.00850909 </i>
    <i name="pawpsdc">     75.45000924 </i>
    <i name="pawaedc">    -40.46930778 </i>
    <i name="eentropy">     -0.00070451 </i>
    <i name="bandstr">      5.32814468 </i>
    <i name="atom">    206.09183643 </i>
    <i name="e_fr_energy">    -10.68768208 </i>
    <i name="e_wo_entrp">    -10.68697758 </i>
    <i name="e_0_energy">    -10.68732983 </i>
   </energy>
  </scstep>
  <scstep>
   <time name="dav">    0.09    0.09</time>
   <time name="total">    0.12    0.13</time>
   <energy>
    <i name="e_fr_energy">    -10.68680367 </i>
    <i name="e_wo_entrp">    -10.68615652 </i>
    <i name="e_0_energy">    -10.68648009 </i>
   </energy>
  </scstep>
  <scstep>
   <time name="dav">    0.08    0.08</time>
   <time name="total">    0.11    0.12</time>
   <energy>
    <i name="e_fr_energy">    -10.68635055 </i>
    <i name="e_wo_entrp">    -10.68577159 </i>
    <i name="e_0_energy">    -10.68606107 </i>
   </energy>
  </scstep>
  <scstep>
   <time name="dav">    0.04    0.04</time>
   <time name="total">    0.06    0.07</time>
   <energy>
    <i name="alphaZ">      3.28728872 </i>
    <i name="ewald">   -226.80960079 </i>
    <i name="hartreedc">    -15.29234368 </i>
    <i name="XCdc">    -18.01331691 </i>
    <i name="pawpsdc">     75.96577438 </i>
    <i name="pawaedc">    -40.99891835 </i>
    <i name="eentropy">     -0.00058298 </i>
    <i name="bandstr">      5.08350955 </i>
    <i name="atom">    206.09183643 </i>
    <i name="e_fr_energy">    -10.68635363 </i>
    <i name="e_wo_entrp">    -10.68577065 </i>
    <i name="e_0_energy">    -10.68606214 </i>
   </energy>
  </scstep>
  <structure>
   <crystal>
    <varray name="basis" >
     <v>       0.00000000       2.73599516       2.73599516 </v>
     <v>       2.73599516      -0.00000000       2.73599516 </v>
     <v>       2.73599516       2.73599516       0.00000000 </v>
    </varray>
    <i name="volume">     40.96151116 </i>
    <varray name="rec_basis" >
     <v>      -0.18274886       0.18274886       0.18274886 </v>
     <v>       0.18274886      -0.18274886       0.18274886 </v>
     <v>       0.18274886       0.18274886      -0.18274886 </v>
    </varray>
   </crystal>
   <varray name="positions" >
    <v>       0.50000000       0.50000000       0.50000000 </v>
    <v>       0.75000000       0.75000000       0.75000000 </v>
   </varray>
  </structure>
  <varray name="forces" >
   <v>       0.00000000       0.00000000       0.00000000 </v>
   <v>      -0.00000000      -0.00000000      -0.00000000 </v>
  </varray>
  <varray name="stress" >
   <v>      -0.65371524      -0.00000000       0.00000000 </v>
   <v>      -0.00000000      -0.65371524      -0.00000000 </v>
   <v>       0.00000000       0.00000000      -0.65371524 </v>
  </varray>
  <energy>
   <i name="e_fr_energy">    -10.68635363 </i>
   <i name="e_wo_entrp">    -10.68606214 </i>
   <i name="e_0_energy">     -0.00058298 </i>
  </energy>
  <time name="totalsc">    0.60    0.71</time>
  <eigenvalues>
   <array>
    <dimension dim="1">band</dimension>
    <dimension dim="2">kpoint</dimension>
    <dimension dim="3">spin</dimension>
    <field>eigene</field>
    <field>occ</field>
    <set>
     <set comment="spin 1">
      <set comment="kpoint 1">
       <r>   -6.1946    1.0000 </r>
       <r>    5.6626    0.9836 </r>
       <r>    5.6626    0.9836 </r>
       <r>    5.6629    0.9835 </r>
       <r>    8.2239    0.0000 </r>
       <r>    8.2239    0.0000 </r>
       <r>    8.2242    0.0000 </r>
       <r>    8.7208    0.0000 </r>
      </set>
      <set comment="kpoint 2">
       <r>   -5.6866    1.0000 </r>
       <r>    2.6514    1.0000 </r>
       <r>    5.0813    1.0000 </r>
       <r>    5.0815    1.0000 </r>
       <r>    7.8116    0.0000 </r>
       <r>    9.0264    0.0000 </r>
       <r>    9.0267    0.0000 </r>
       <r>   11.5137    0.0000 </r>
      </set>
      <set comment="kpoint 3">
       <r>   -4.3534    1.0000 </r>
       <r>   -0.5659    1.0000 </r>
       <r>    4.5328    1.0000 </r>
       <r>    4.5331    1.0000 </r>
       <r>    7.1968    0.0000 </r>
       <r>    9.1408    0.0000 </r>
       <r>    9.1412    0.0000 </r>
       <r>   13.4594    0.0000 </r>
      </set>
      <set comment="kpoint 4">
       <r>   -5.5116    1.0000 </r>
       <r>    3.0007    1.0000 </r>
       <r>    4.1842    1.0000 </r>
       <r>    4.1843    1.0000 </r>
       <r>    7.1470    0.0000 </r>
       <r>    9.5515    0.0000 </r>
       <r>   10.5448    0.0000 </r>
       <r>   10.5450    0.0000 </r>
      </set>
      <set comment="kpoint 5">
       <r>   -4.3924    1.0000 </r>
       <r>    0.3614    1.0000 </r>
       <r>    3.0574    1.0000 </r>
       <r>    3.6769    1.0000 </r>
       <r>    7.4677    0.0000 </r>
       <r>    9.7645    0.0000 </r>
       <r>   10.5585    0.0000 </r>
       <r>   11.1270    0.0000 </r>
      </set>
      <set comment="kpoint 6">
       <r>   -3.5308    1.0000 </r>
       <r>   -1.0007    1.0000 </r>
       <r>    2.2609    1.0000 </r>
       <r>    3.9570    1.0000 </r>
       <r>    7.7424    0.0000 </r>
       <r>   10.2421    0.0000 </r>
       <r>   10.5096    0.0000 </r>
       <r>   13.2368    0.0000 </r>
      </set>
      <set comment="kpoint 7">
       <r>   -4.8710    1.0000 </r>
       <r>    1.1796    1.0000 </r>
       <r>    2.7002    1.0000 </r>
       <r>    4.8130    1.0000 </r>
       <r>    8.5246    0.0000 </r>
       <r>    9.6517    0.0000 </r>
       <r>    9.9823    0.0000 </r>
       <r>   11.3273    0.0000 </r>
      </set>
      <set comment="kpoint 8">
       <r>   -3.5308    1.0000 </r>
       <r>   -0.5144    1.0000 </r>
       <r>    2.9859    1.0000 </r>
       <r>    2.9860    1.0000 </r>
       <r>    6.3037    0.0082 </r>
       <r>    7.0345    0.0000 </r>
       <r>   14.1368    0.0000 </r>
       <r>   14.1371    0.0000 </r>
      </set>
      <set comment="kpoint 9">
       <r>   -2.3549    1.0000 </r>
       <r>   -1.7510    1.0000 </r>
       <r>    1.6586    1.0000 </r>
       <r>    3.1017    1.0000 </r>
       <r>    6.7500    0.0000 </r>
       <r>    8.8443    0.0000 </r>
       <r>   13.7063    0.0000 </r>
       <r>   14.2210    0.0000 </r>
      </set>
      <set comment="kpoint 10">
       <r>   -3.1037    1.0000 </r>
       <r>   -0.8915    1.0000 </r>
       <r>    1.7411    1.0000 </r>
       <r>    2.7096    1.0000 </r>
       <r>    9.0876    0.0000 </r>
       <r>    9.5021    0.0000 </r>
       <r>   10.0551    0.0000 </r>
       <r>   13.4360    0.0000 </r>
      </set>
     </set>
    </set>
   </array>
  </eigenvalues>
  <separator name="orbital magnetization" >
   <v name="MAGDIPOLOUT">      0.00000000      0.00000000      0.00000000</v>
  </separator>
  <dos>
   <i name="efermi">      5.96440986 </i>
   <total>
    <array>
     <dimension dim="1">gridpoints</dimension>
     <dimension dim="2">spin</dimension>
     <field>energy</field>
     <field>total</field>
     <field>integrated</field>
     <set>
      <set comment="spin 1">
       <r>    -8.1946     0.0000     0.0000 </r>
       <r>    -8.1132     0.0000     0.0000 </r>
       <r>    -8.0318     0.0000     0.0000 </r>
       <r>    -7.9504     0.0000     0.0000 </r>
       <r>    -7.8690     0.0000     0.0000 </r>
       <r>    -7.7877     0.0000     0.0000 </r>
       <r>    -7.7063     0.0000     0.0000 </r>
       <r>    -7.6249     0.0000     0.0000 </r>
       <r>    -7.5435     0.0000     0.0000 </r>
       <r>    -7.4621     0.0000     0.0000 </r>
       <r>    -7.3807     0.0000     0.0000 </r>
       <r>    -7.2993     0.0000     0.0000 </r>
       <r>    -7.2180     0.0000     0.0000 </r>
       <r>    -7.1366     0.0000     0.0000 </r>
       <r>    -7.0552     0.0000     0.0000 </r>
       <r>    -6.9738     0.0000     0.0000 </r>
       <r>    -6.8924     0.0000     0.0000 </r>
       <r>    -6.8110     0.0000     0.0000 </r>
       <r>    -6.7297     0.0000     0.0000 </r>
       <r>    -6.6483     0.0001     0.0000 </r>
       <r>    -6.5669     0.0007     0.0001 </r>
       <r>    -6.4855     0.0031     0.0003 </r>
       <r>    -6.4041     0.0097     0.0011 </r>
       <r>    -6.3227     0.0223     0.0029 </r>
       <r>    -6.2413     0.0370     0.0059 </r>
       <r>    -6.1600     0.0451     0.0096 </r>
       <r>    -6.0786     0.0426     0.0131 </r>
       <r>    -5.9972     0.0425     0.0165 </r>
       <r>    -5.9158     0.0740     0.0225 </r>
       <r>    -5.8344     0.1646     0.0359 </r>
       <r>    -5.7530     0.3089     0.0611 </r>
       <r>    -5.6716     0.4509     0.0978 </r>
       <r>    -5.5903     0.5192     0.1400 </r>
       <r>    -5.5089     0.4834     0.1794 </r>
       <r>    -5.4275     0.3668     0.2092 </r>
       <r>    -5.3461     0.2237     0.2274 </r>
       <r>    -5.2647     0.1108     0.2365 </r>
       <r>    -5.1833     0.0635     0.2416 </r>
       <r>    -5.1019     0.0988     0.2497 </r>
       <r>    -5.0206     0.2236     0.2679 </r>
       <r>    -4.9392     0.4011     0.3005 </r>
       <r>    -4.8578     0.5269     0.3434 </r>
       <r>    -4.7764     0.5129     0.3851 </r>
       <r>    -4.6950     0.4132     0.4188 </r>
       <r>    -4.6136     0.4114     0.4522 </r>
       <r>    -4.5322     0.6556     0.5056 </r>
       <r>    -4.4509     1.0815     0.5936 </r>
       <r>    -4.3695     1.3927     0.7070 </r>
       <r>    -4.2881     1.3196     0.8143 </r>
       <r>    -4.2067     0.9116     0.8885 </r>
       <r>    -4.1253     0.4587     0.9259 </r>
       <r>    -4.0439     0.1688     0.9396 </r>
       <r>    -3.9625     0.0507     0.9437 </r>
       <r>    -3.8812     0.0411     0.9471 </r>
       <r>    -3.7998     0.1309     0.9577 </r>
       <r>    -3.7184     0.3763     0.9883 </r>
       <r>    -3.6370     0.7908     1.0527 </r>
       <r>    -3.5556     1.2063     1.1509 </r>
       <r>    -3.4742     1.3449     1.2603 </r>
       <r>    -3.3928     1.1367     1.3528 </r>
       <r>    -3.3115     0.8525     1.4222 </r>
       <r>    -3.2301     0.7997     1.4873 </r>
       <r>    -3.1487     0.9721     1.5664 </r>
       <r>    -3.0673     1.0852     1.6547 </r>
       <r>    -2.9859     0.9275     1.7302 </r>
       <r>    -2.9045     0.5805     1.7775 </r>
       <r>    -2.8232     0.2647     1.7990 </r>
       <r>    -2.7418     0.0930     1.8066 </r>
       <r>    -2.6604     0.0496     1.8106 </r>
       <r>    -2.5790     0.1007     1.8188 </r>
       <r>    -2.4976     0.2362     1.8380 </r>
       <r>    -2.4162     0.4149     1.8718 </r>
       <r>    -2.3348     0.5288     1.9148 </r>
       <r>    -2.2535     0.4888     1.9546 </r>
       <r>    -2.1721     0.3298     1.9815 </r>
       <r>    -2.0907     0.1743     1.9956 </r>
       <r>    -2.0093     0.1164     2.0051 </r>
       <r>    -1.9279     0.1830     2.0200 </r>
       <r>    -1.8465     0.3428     2.0479 </r>
       <r>    -1.7651     0.4969     2.0884 </r>
       <r>    -1.6838     0.5252     2.1311 </r>
       <r>    -1.6024     0.4025     2.1639 </r>
       <r>    -1.5210     0.2239     2.1821 </r>
       <r>    -1.4396     0.0940     2.1897 </r>
       <r>    -1.3582     0.0507     2.1939 </r>
       <r>    -1.2768     0.1113     2.2029 </r>
       <r>    -1.1954     0.3376     2.2304 </r>
       <r>    -1.1141     0.7980     2.2953 </r>
       <r>    -1.0327     1.4184     2.4108 </r>
       <r>    -0.9513     1.9077     2.5660 </r>
       <r>    -0.8699     1.9619     2.7257 </r>
       <r>    -0.7885     1.5849     2.8547 </r>
       <r>    -0.7071     1.1026     2.9444 </r>
       <r>    -0.6257     0.8130     3.0106 </r>
       <r>    -0.5444     0.7144     3.0687 </r>
       <r>    -0.4630     0.6207     3.1192 </r>
       <r>    -0.3816     0.4384     3.1549 </r>
       <r>    -0.3002     0.2332     3.1739 </r>
       <r>    -0.2188     0.0915     3.1813 </r>
       <r>    -0.1374     0.0271     3.1836 </r>
       <r>    -0.0560     0.0120     3.1845 </r>
       <r>     0.0253     0.0347     3.1874 </r>
       <r>     0.1067     0.1281     3.1978 </r>
       <r>     0.1881     0.3510     3.2263 </r>
       <r>     0.2695     0.6969     3.2831 </r>
       <r>     0.3509     1.0025     3.3646 </r>
       <r>     0.4323     1.0450     3.4497 </r>
       <r>     0.5136     0.7893     3.5139 </r>
       <r>     0.5950     0.4320     3.5491 </r>
       <r>     0.6764     0.1716     3.5631 </r>
       <r>     0.7578     0.0521     3.5673 </r>
       <r>     0.8392     0.0258     3.5694 </r>
       <r>     0.9206     0.0617     3.5744 </r>
       <r>     1.0020     0.1678     3.5881 </r>
       <r>     1.0833     0.3388     3.6157 </r>
       <r>     1.1647     0.4963     3.6560 </r>
       <r>     1.2461     0.5302     3.6992 </r>
       <r>     1.3275     0.4294     3.7341 </r>
       <r>     1.4089     0.3298     3.7610 </r>
       <r>     1.4903     0.4105     3.7944 </r>
       <r>     1.5717     0.7511     3.8555 </r>
       <r>     1.6530     1.2269     3.9554 </r>
       <r>     1.7344     1.5315     4.0800 </r>
       <r>     1.8158     1.4263     4.1961 </r>
       <r>     1.8972     0.9989     4.2774 </r>
       <r>     1.9786     0.5811     4.3247 </r>
       <r>     2.0600     0.4436     4.3608 </r>
       <r>     2.1414     0.6234     4.4115 </r>
       <r>     2.2227     0.9324     4.4874 </r>
       <r>     2.3041     1.0925     4.5763 </r>
       <r>     2.3855     1.0032     4.6580 </r>
       <r>     2.4669     0.8911     4.7305 </r>
       <r>     2.5483     1.0746     4.8179 </r>
       <r>     2.6297     1.5690     4.9456 </r>
       <r>     2.7111     2.0229     5.1103 </r>
       <r>     2.7924     2.1433     5.2847 </r>
       <r>     2.8738     2.0896     5.4548 </r>
       <r>     2.9552     2.1992     5.6338 </r>
       <r>     3.0366     2.4107     5.8299 </r>
       <r>     3.1180     2.3136     6.0182 </r>
       <r>     3.1994     1.7436     6.1601 </r>
       <r>     3.2808     0.9992     6.2415 </r>
       <r>     3.3621     0.4670     6.2795 </r>
       <r>     3.4435     0.3030     6.3041 </r>
       <r>     3.5249     0.4678     6.3422 </r>
       <r>     3.6063     0.8214     6.4091 </r>
       <r>     3.6877     1.1497     6.5026 </r>
       <r>     3.7691     1.3049     6.6088 </r>
       <r>     3.8505     1.3438     6.7182 </r>
       <r>     3.9318     1.3776     6.8303 </r>
       <r>     4.0132     1.3696     6.9418 </r>
       <r>     4.0946     1.2400     7.0427 </r>
       <r>     4.1760     1.0188     7.1256 </r>
       <r>     4.2574     0.7914     7.1900 </r>
       <r>     4.3388     0.6400     7.2421 </r>
       <r>     4.4201     0.6325     7.2936 </r>
       <r>     4.5015     0.7392     7.3538 </r>
       <r>     4.5829     0.8251     7.4209 </r>
       <r>     4.6643     0.8157     7.4873 </r>
       <r>     4.7457     0.7724     7.5501 </r>
       <r>     4.8271     0.7603     7.6120 </r>
       <r>     4.9085     0.7781     7.6753 </r>
       <r>     4.9898     0.8165     7.7418 </r>
       <r>     5.0712     0.8397     7.8101 </r>
       <r>     5.1526     0.7574     7.8718 </r>
       <r>     5.2340     0.5418     7.9159 </r>
       <r>     5.3154     0.2935     7.9398 </r>
       <r>     5.3968     0.1276     7.9501 </r>
       <r>     5.4782     0.0715     7.9560 </r>
       <r>     5.5595     0.0875     7.9631 </r>
       <r>     5.6409     0.1225     7.9731 </r>
       <r>     5.7223     0.1325     7.9838 </r>
       <r>     5.8037     0.1048     7.9924 </r>
       <r>     5.8851     0.0614     7.9974 </r>
       <r>     5.9665     0.0331     8.0001 </r>
       <r>     6.0479     0.0389     8.0032 </r>
       <r>     6.1292     0.0883     8.0104 </r>
       <r>     6.2106     0.1733     8.0245 </r>
       <r>     6.2920     0.2512     8.0450 </r>
       <r>     6.3734     0.2694     8.0669 </r>
       <r>     6.4548     0.2329     8.0858 </r>
       <r>     6.5362     0.2199     8.1037 </r>
       <r>     6.6176     0.3029     8.1284 </r>
       <r>     6.6989     0.4575     8.1656 </r>
       <r>     6.7803     0.5746     8.2124 </r>
       <r>     6.8617     0.5929     8.2606 </r>
       <r>     6.9431     0.5846     8.3082 </r>
       <r>     7.0245     0.6538     8.3614 </r>
       <r>     7.1059     0.7901     8.4257 </r>
       <r>     7.1873     0.8976     8.4988 </r>
       <r>     7.2686     0.9510     8.5762 </r>
       <r>     7.3500     1.0380     8.6607 </r>
       <r>     7.4314     1.2007     8.7584 </r>
       <r>     7.5128     1.3496     8.8682 </r>
       <r>     7.5942     1.4337     8.9849 </r>
       <r>     7.6756     1.5189     9.1085 </r>
       <r>     7.7570     1.5750     9.2367 </r>
       <r>     7.8383     1.4237     9.3526 </r>
       <r>     7.9197     1.0222     9.4358 </r>
       <r>     8.0011     0.5718     9.4823 </r>
       <r>     8.0825     0.2806     9.5051 </r>
       <r>     8.1639     0.1799     9.5198 </r>
       <r>     8.2453     0.1909     9.5353 </r>
       <r>     8.3266     0.2583     9.5563 </r>
       <r>     8.4080     0.3783     9.5871 </r>
       <r>     8.4894     0.5230     9.6297 </r>
       <r>     8.5708     0.6167     9.6799 </r>
       <r>     8.6522     0.6402     9.7320 </r>
       <r>     8.7336     0.6955     9.7886 </r>
       <r>     8.8150     0.9097     9.8626 </r>
       <r>     8.8963     1.3356     9.9713 </r>
       <r>     8.9777     1.9176    10.1274 </r>
       <r>     9.0591     2.4227    10.3245 </r>
       <r>     9.1405     2.5071    10.5286 </r>
       <r>     9.2219     2.0801    10.6979 </r>
       <r>     9.3033     1.5116    10.8209 </r>
       <r>     9.3847     1.2836    10.9254 </r>
       <r>     9.4660     1.5078    11.0481 </r>
       <r>     9.5474     1.9030    11.2029 </r>
       <r>     9.6288     2.1624    11.3789 </r>
       <r>     9.7102     2.1984    11.5579 </r>
       <r>     9.7916     2.0836    11.7274 </r>
       <r>     9.8730     1.9581    11.8868 </r>
       <r>     9.9544     1.9618    12.0465 </r>
       <r>    10.0357     2.0841    12.2161 </r>
       <r>    10.1171     2.1602    12.3919 </r>
       <r>    10.1985     2.0919    12.5621 </r>
       <r>    10.2799     1.9735    12.7227 </r>
       <r>    10.3613     2.0207    12.8872 </r>
       <r>    10.4427     2.3585    13.0791 </r>
       <r>    10.5241     2.7423    13.3023 </r>
       <r>    10.6054     2.6765    13.5202 </r>
       <r>    10.6868     2.0063    13.6834 </r>
       <r>    10.7682     1.1332    13.7757 </r>
       <r>    10.8496     0.5439    13.8199 </r>
       <r>    10.9310     0.4128    13.8535 </r>
       <r>    11.0124     0.6480    13.9063 </r>
       <r>    11.0938     1.0277    13.9899 </r>
       <r>    11.1751     1.2945    14.0952 </r>
       <r>    11.2565     1.3181    14.2025 </r>
       <r>    11.3379     1.1648    14.2973 </r>
       <r>    11.4193     0.9589    14.3753 </r>
       <r>    11.5007     0.7523    14.4366 </r>
       <r>    11.5821     0.5413    14.4806 </r>
       <r>    11.6634     0.3333    14.5078 </r>
       <r>    11.7448     0.1646    14.5212 </r>
       <r>    11.8262     0.0623    14.5262 </r>
       <r>    11.9076     0.0176    14.5277 </r>
       <r>    11.9890     0.0036    14.5279 </r>
       <r>    12.0704     0.0005    14.5280 </r>
       <r>    12.1518     0.0001    14.5280 </r>
       <r>    12.2331     0.0000    14.5280 </r>
       <r>    12.3145     0.0000    14.5280 </r>
       <r>    12.3959     0.0000    14.5280 </r>
       <r>    12.4773     0.0000    14.5280 </r>
       <r>    12.5587     0.0000    14.5280 </r>
       <r>    12.6401     0.0001    14.5280 </r>
       <r>    12.7215     0.0006    14.5281 </r>
       <r>    12.8028     0.0045    14.5284 </r>
       <r>    12.8842     0.0250    14.5305 </r>
       <r>    12.9656     0.1024    14.5388 </r>
       <r>    13.0470     0.3077    14.5638 </r>
       <r>    13.1284     0.6903    14.6200 </r>
       <r>    13.2098     1.1907    14.7169 </r>
       <r>    13.2912     1.6527    14.8514 </r>
       <r>    13.3725     1.9359    15.0090 </r>
       <r>    13.4539     1.9607    15.1686 </r>
       <r>    13.5353     1.7204    15.3086 </r>
       <r>    13.6167     1.3383    15.4175 </r>
       <r>    13.6981     0.9825    15.4975 </r>
       <r>    13.7795     0.7044    15.5548 </r>
       <r>    13.8609     0.4916    15.5948 </r>
       <r>    13.9422     0.4032    15.6276 </r>
       <r>    14.0236     0.5187    15.6698 </r>
       <r>    14.1050     0.7876    15.7339 </r>
       <r>    14.1864     1.0035    15.8156 </r>
       <r>    14.2678     0.9730    15.8948 </r>
       <r>    14.3492     0.7050    15.9521 </r>
       <r>    14.4306     0.3799    15.9831 </r>
       <r>    14.5119     0.1518    15.9954 </r>
       <r>    14.5933     0.0448    15.9991 </r>
       <r>    14.6747     0.0097    15.9999 </r>
       <r>    14.7561     0.0015    16.0000 </r>
       <r>    14.8375     0.0002    16.0000 </r>
       <r>    14.9189     0.0000    16.0000 </r>
       <r>    15.0003     0.0000    16.0000 </r>
       <r>    15.0816     0.0000    16.0000 </r>
       <r>    15.1630     0.0000    16.0000 </r>
       <r>    15.2444     0.0000    16.0000 </r>
       <r>    15.3258     0.0000    16.0000 </r>
       <r>    15.4072     0.0000    16.0000 </r>
       <r>    15.4886     0.0000    16.0000 </r>
       <r>    15.5699     0.0000    16.0000 </r>
       <r>    15.6513     0.0000    16.0000 </r>
       <r>    15.7327     0.0000    16.0000 </r>
       <r>    15.8141     0.0000    16.0000 </r>
       <r>    15.8955     0.0000    16.0000 </r>
       <r>    15.9769     0.0000    16.0000 </r>
       <r>    16.0583     0.0000    16.0000 </r>
       <r>    16.1396     0.0000    16.0000 </r>
       <r>    16.2210     0.0000    16.0000 </r>
      </set>
     </set>
    </array>
   </total>
  </dos>
 </calculation>
 <structure name="finalpos" >
  <crystal>
   <varray name="basis" >
    <v>       0.00000000       2.73599516       2.73599516 </v>
    <v>       2.73599516      -0.00000000       2.73599516 </v>
    <v>       2.73599516       2.73599516       0.00000000 </v>
   </varray>
   <i name="volume">     40.96151116 </i>
   <varray name="rec_basis" >
    <v>      -0.18274886       0.18274886       0.18274886 </v>
    <v>       0.18274886      -0.18274886       0.18274886 </v>
    <v>       0.18274886       0.18274886      -0.18274886 </v>
   </varray>
  </crystal>
  <varray name="positions" >
   <v>       0.50000000       0.50000000       0.50000000 </v>
   <v>       0.75000000       0.75000000       0.75000000 </v>
  </varray>
 </structure>
</modeling>
