unknown system                          
   1.00000000000000     
     0.000000    2.761981    2.761981
     2.761981    0.000000    2.761981
     2.761981    2.761981    0.000000
   Si
     2
Direct
  0.500000  0.500000  0.500000
  0.750000  0.750000  0.750000
 
   36   36   36
 0.82701     0.84252     0.89013     0.97296      1.0958      1.2644      1.4854      1.7652      2.1093      2.5213    
  3.0002      3.5385      4.1197      4.7165      5.2926      5.8050      6.2103      6.4707      6.5605      6.4707    
  6.2103      5.8050      5.2926      4.7166      4.1198      3.5386      3.0002      2.5213      2.1093      1.7651    
  1.4854      1.2644      1.0958     0.97297     0.89014     0.84252     0.84252     0.86957     0.92542      1.0134    
  1.1379      1.3042      1.5175      1.7825      2.1026      2.4781      2.9050      3.3727      3.8630      4.3497    
  4.8003      5.1797      5.4546      5.5992      5.5992      5.4546      5.1797      4.8003      4.3497      3.8630    
  3.3728      2.9050      2.4781      2.1026      1.7825      1.5174      1.3042      1.1379      1.0134     0.92542    
 0.86956     0.84252     0.89013     0.92542     0.98657      1.0768      1.2003      1.3612      1.5637      1.8110    
  2.1042      2.4411      2.8153      3.2143      3.6197      4.0075      4.3501      4.6198      4.7926      4.8521    
  4.7926      4.6198      4.3502      4.0075      3.6197      3.2143      2.8152      2.4411      2.1041      1.8110    
  1.5637      1.3612      1.2003      1.0768     0.98657     0.92541     0.89012     0.87861     0.97296      1.0134    
  1.0768      1.1664      1.2857      1.4383      1.6270      1.8535      2.1173      2.4142      2.7361      3.0700    
  3.3983      3.6999      3.9523      4.1346      4.2302      4.2302      4.1346      3.9524      3.6999      3.3983    
  3.0699      2.7360      2.4141      2.1172      1.8535      1.6270      1.4383      1.2858      1.1665      1.0768    
  1.0134     0.97295     0.95334     0.95335      1.0958      1.1379      1.2003      1.2857      1.3974      1.5380    
  1.7095      1.9123      2.1442      2.4000      2.6708      2.9440      3.2036      3.4317      3.6106      3.7249    
  3.7642      3.7249      3.6106      3.4317      3.2036      2.9440      2.6708      2.4000      2.1442      1.9123    
  1.7095      1.5380      1.3974      1.2858      1.2003      1.1379      1.0957      1.0715      1.0636      1.0715    
  1.2644      1.3042      1.3612      1.4383      1.5380      1.6626      1.8129      1.9884      2.1861      2.4000    
  2.6214      2.8385      3.0375      3.2038      3.3237      3.3866      3.3866      3.3237      3.2038      3.0375    
  2.8385      2.6214      2.4000      2.1861      1.9885      1.8130      1.6626      1.5380      1.4383      1.3612    
  1.3042      1.2644      1.2395      1.2275      1.2275      1.2395      1.4854      1.5175      1.5637      1.6270    
  1.7095      1.8129      1.9375      2.0820      2.2428      2.4142      2.5879      2.7536      2.8997      3.0145    
  3.0881      3.1134      3.0881      3.0145      2.8997      2.7535      2.5879      2.4142      2.2428      2.0820    
  1.9376      1.8130      1.7095      1.6270      1.5637      1.5174      1.4854      1.4649      1.4536      1.4500    
  1.4536      1.4649      1.7652      1.7825      1.8110      1.8535      1.9123      1.9884      2.0820      2.1912    
  2.3127      2.4411      2.5691      2.6880      2.7883      2.8612      2.8996      2.8996      2.8612      2.7883    
  2.6880      2.5691      2.4411      2.3128      2.1912      2.0820      1.9885      1.9123      1.8535      1.8110    
  1.7825      1.7652      1.7559      1.7517      1.7502      1.7502      1.7517      1.7559      2.1093      2.1026    
  2.1042      2.1173      2.1442      2.1861      2.2428      2.3127      2.3928      2.4781      2.5628      2.6395    
  2.7011      2.7411      2.7549      2.7411      2.7011      2.6395      2.5628      2.4781      2.3928      2.3127    
  2.2428      2.1861      2.1441      2.1172      2.1041      2.1026      2.1093      2.1205      2.1322      2.1409    
  2.1441      2.1409      2.1322      2.1205      2.5213      2.4781      2.4411      2.4142      2.4000      2.4000    
  2.4142      2.4411      2.4781      2.5213      2.5656      2.6055      2.6358      2.6522      2.6522      2.6358    
  2.6056      2.5656      2.5213      2.4781      2.4411      2.4141      2.4000      2.4000      2.4141      2.4411    
  2.4781      2.5213      2.5656      2.6056      2.6358      2.6522      2.6522      2.6358      2.6055      2.5656    
  3.0002      2.9050      2.8153      2.7361      2.6708      2.6214      2.5879      2.5691      2.5628      2.5656    
  2.5737      2.5832      2.5906      2.5933      2.5906      2.5833      2.5737      2.5656      2.5627      2.5690    
  2.5878      2.6213      2.6708      2.7360      2.8153      2.9050      3.0002      3.0942      3.1793      3.2474    
  3.2916      3.3070      3.2916      3.2474      3.1792      3.0942      3.5385      3.3727      3.2143      3.0700    
  2.9440      2.8385      2.7536      2.6880      2.6395      2.6055      2.5832      2.5701      2.5640      2.5640    
  2.5701      2.5833      2.6055      2.6395      2.6879      2.7535      2.8384      2.9440      3.0700      3.2143    
  3.3728      3.5386      3.7029      3.8548      3.9827      4.0755      4.1244      4.1244      4.0755      3.9827    
  3.8548      3.7028      4.1197      3.8630      3.6197      3.3983      3.2036      3.0375      2.8997      2.7883    
  2.7011      2.6358      2.5906      2.5640      2.5553      2.5640      2.5906      2.6358      2.7010      2.7882    
  2.8996      3.0374      3.2036      3.3983      3.6198      3.8630      4.1197      4.3780      4.6230      4.8382    
  5.0069      5.1148      5.1520      5.1148      5.0069      4.8382      4.6230      4.3779      4.7165      4.3497    
  4.0075      3.6999      3.4317      3.2038      3.0145      2.8612      2.7411      2.6522      2.5933      2.5640    
  2.5640      2.5934      2.6522      2.7410      2.8611      3.0144      3.2037      3.4317      3.7000      4.0076    
  4.3497      4.7166      5.0932      5.4601      5.7944      6.0723      6.2720      6.3765      6.3765      6.2720    
  6.0723      5.7944      5.4601      5.0932      5.2926      4.8003      4.3501      3.9523      3.6106      3.3237    
  3.0881      2.8996      2.7549      2.6522      2.5906      2.5701      2.5906      2.6522      2.7548      2.8995    
  3.0880      3.3236      3.6106      3.9524      4.3502      4.8003      5.2926      5.8094      6.3261      6.8127    
  7.2368      7.5671      7.7772      7.8493      7.7772      7.5671      7.2368      6.8127      6.3261      5.8094    
  5.8050      5.1797      4.6198      4.1346      3.7249      3.3866      3.1134      2.8996      2.7411      2.6358    
  2.5833      2.5833      2.6358      2.7410      2.8995      3.1133      3.3865      3.7249      4.1346      4.6199    
  5.1797      5.8050      6.4769      7.1662      7.8356      8.4432      8.9462      9.3063      9.4943      9.4943    
  9.3063      8.9462      8.4432      7.8357      7.1662      6.4769      6.2103      5.4546      4.7926      4.2302    
  3.7642      3.3866      3.0881      2.8612      2.7011      2.6056      2.5737      2.6055      2.7010      2.8611    
  3.0880      3.3865      3.7642      4.2302      4.7926      5.4546      6.2103      7.0414      7.9162      8.7913    
  9.6148      10.332      10.890      11.244      11.366      11.244      10.890      10.332      9.6148      8.7913    
  7.9163      7.0414      6.4707      5.5992      4.8521      4.2302      3.7249      3.3237      3.0145      2.7883    
  2.6395      2.5656      2.5656      2.6395      2.7882      3.0144      3.3236      3.7249      4.2302      4.8521    
  5.5992      6.4706      7.4517      8.5110      9.6011      10.663      11.629      12.431      13.008      13.309    
  13.309      13.007      12.431      11.628      10.662      9.6011      8.5110      7.4518      6.5605      5.5992    
  4.7926      4.1346      3.6106      3.2038      2.8997      2.6880      2.5628      2.5213      2.5627      2.6879    
  2.8996      3.2037      3.6106      4.1346      4.7926      5.5992      6.5604      7.6678      8.8937      10.191    
  11.495      12.731      13.816      14.668      15.214      15.402      15.214      14.668      13.816      12.731    
  11.495      10.191      8.8937      7.6679      6.4707      5.4546      4.6198      3.9524      3.4317      3.0375    
  2.7535      2.5691      2.4781      2.4781      2.5690      2.7535      3.0374      3.4317      3.9524      4.6199    
  5.4546      6.4706      7.6678      9.0258      10.502      12.032      13.537      14.924      16.092      16.938    
  17.381      17.381      16.938      16.092      14.924      13.537      12.032      10.502      9.0259      7.6679    
  6.2103      5.1797      4.3502      3.6999      3.2036      2.8385      2.5879      2.4411      2.3928      2.4411    
  2.5878      2.8384      3.2036      3.7000      4.3502      5.1797      6.2103      7.4517      8.8937      10.502    
  12.218      13.963      15.643      17.139      18.316      19.068      19.326      19.067      18.315      17.138    
  15.643      13.963      12.217      10.502      8.8937      7.4517      5.8050      4.8003      4.0075      3.3983    
  2.9440      2.6214      2.4142      2.3128      2.3127      2.4141      2.6213      2.9440      3.3983      4.0076    
  4.8003      5.8050      7.0414      8.5110      10.191      12.032      13.963      15.893      17.693      19.206    
  20.300      20.873      20.873      20.300      19.206      17.692      15.892      13.963      12.032      10.191    
  8.5109      7.0414      5.2926      4.3497      3.6197      3.0699      2.6708      2.4000      2.2428      2.1912    
  2.2428      2.4000      2.6708      3.0700      3.6198      4.3497      5.2926      6.4769      7.9162      9.6011    
  11.495      13.537      15.643      17.693      19.515      20.951      21.873      22.190      21.873      20.951    
  19.515      17.692      15.643      13.537      11.495      9.6010      7.9162      6.4769      4.7166      3.8630    
  3.2143      2.7360      2.4000      2.1861      2.0820      2.0820      2.1861      2.4000      2.7360      3.2143    
  3.8630      4.7166      5.8094      7.1662      8.7913      10.663      12.731      14.924      17.139      19.206    
  20.951      22.218      22.887      22.887      22.219      20.951      19.206      17.138      14.924      12.731    
  10.662      8.7913      7.1662      5.8094      4.1198      3.3728      2.8152      2.4141      2.1442      1.9885    
  1.9376      1.9885      2.1441      2.4141      2.8153      3.3728      4.1197      5.0932      6.3261      7.8356    
  9.6148      11.629      13.816      16.092      18.316      20.300      21.873      22.887      23.238      22.887    
  21.873      20.300      18.316      16.092      13.816      11.628      9.6148      7.8356      6.3261      5.0933    
  3.5386      2.9050      2.4411      2.1172      1.9123      1.8130      1.8130      1.9123      2.1172      2.4411    
  2.9050      3.5386      4.3780      5.4601      6.8127      8.4432      10.332      12.431      14.668      16.938    
  19.068      20.873      22.190      22.887      22.887      22.190      20.873      19.068      16.938      14.668    
  12.431      10.332      8.4432      6.8127      5.4602      4.3780      3.0002      2.4781      2.1041      1.8535    
  1.7095      1.6626      1.7095      1.8535      2.1041      2.4781      3.0002      3.7029      4.6230      5.7944    
  7.2368      8.9462      10.890      13.008      15.214      17.381      19.326      20.873      21.873      22.219    
  21.873      20.873      19.326      17.381      15.214      13.007      10.890      8.9461      7.2368      5.7944    
  4.6231      3.7029      2.5213      2.1026      1.8110      1.6270      1.5380      1.5380      1.6270      1.8110    
  2.1026      2.5213      3.0942      3.8548      4.8382      6.0723      7.5671      9.3063      11.244      13.309    
  15.402      17.381      19.067      20.300      20.951      20.951      20.300      19.068      17.381      15.402    
  13.309      11.244      9.3062      7.5671      6.0724      4.8383      3.8549      3.0942      2.1093      1.7825    
  1.5637      1.4383      1.3974      1.4383      1.5637      1.7825      2.1093      2.5656      3.1793      3.9827    
  5.0069      6.2720      7.7772      9.4943      11.366      13.309      15.214      16.938      18.315      19.206    
  19.515      19.206      18.316      16.938      15.214      13.309      11.366      9.4942      7.7772      6.2721    
  5.0071      3.9828      3.1793      2.5656      1.7651      1.5174      1.3612      1.2858      1.2858      1.3612    
  1.5174      1.7652      2.1205      2.6056      3.2474      4.0755      5.1148      6.3765      7.8493      9.4943    
  11.244      13.007      14.668      16.092      17.138      17.692      17.692      17.138      16.092      14.668    
  13.007      11.244      9.4942      7.8493      6.3766      5.1149      4.0757      3.2475      2.6056      2.1205    
  1.4854      1.3042      1.2003      1.1665      1.2003      1.3042      1.4854      1.7559      2.1322      2.6358    
  3.2916      4.1244      5.1520      6.3765      7.7772      9.3063      10.890      12.431      13.816      14.924    
  15.643      15.892      15.643      14.924      13.816      12.431      10.890      9.3062      7.7772      6.3766    
  5.1521      4.1245      3.2917      2.6358      2.1322      1.7558      1.2644      1.1379      1.0768      1.0768    
  1.1379      1.2644      1.4649      1.7517      2.1409      2.6522      3.3070      4.1244      5.1148      6.2720    
  7.5671      8.9462      10.332      11.628      12.731      13.537      13.963      13.963      13.537      12.731    
  11.628      10.332      8.9461      7.5671      6.2721      5.1149      4.1245      3.3070      2.6522      2.1409    
  1.7516      1.4649      1.0958      1.0134     0.98657      1.0134      1.0957      1.2395      1.4536      1.7502    
  2.1441      2.6522      3.2916      4.0755      5.0069      6.0723      7.2368      8.4432      9.6148      10.662    
  11.495      12.032      12.217      12.032      11.495      10.662      9.6148      8.4432      7.2368      6.0724    
  5.0071      4.0757      3.2917      2.6522      2.1440      1.7502      1.4536      1.2395     0.97297     0.92542    
 0.92541     0.97295      1.0715      1.2275      1.4500      1.7502      2.1409      2.6358      3.2474      3.9827    
  4.8382      5.7944      6.8127      7.8357      8.7913      9.6011      10.191      10.502      10.502      10.191    
  9.6010      8.7913      7.8356      6.8127      5.7944      4.8383      3.9828      3.2475      2.6358      2.1409    
  1.7502      1.4500      1.2275      1.0715     0.89014     0.86956     0.89012     0.95334      1.0636      1.2275    
  1.4536      1.7517      2.1322      2.6055      3.1792      3.8548      4.6230      5.4601      6.3261      7.1662    
  7.9163      8.5110      8.8937      9.0259      8.8937      8.5109      7.9162      7.1662      6.3261      5.4602    
  4.6231      3.8549      3.1793      2.6056      2.1322      1.7516      1.4536      1.2275      1.0636     0.95336    
 0.84252     0.84252     0.87861     0.95335      1.0715      1.2395      1.4649      1.7559      2.1205      2.5656    
  3.0942      3.7028      4.3779      5.0932      5.8094      6.4769      7.0414      7.4518      7.6679      7.6679    
  7.4517      7.0414      6.4769      5.8094      5.0933      4.3780      3.7029      3.0942      2.5656      2.1205    
  1.7558      1.4649      1.2395      1.0715     0.95336     0.87862     0.84252     0.86957     0.92542      1.0134    
  1.1379      1.3042      1.5175      1.7825      2.1026      2.4781      2.9050      3.3727      3.8630      4.3497    
  4.8003      5.1797      5.4546      5.5992      5.5992      5.4546      5.1797      4.8003      4.3497      3.8630    
  3.3728      2.9050      2.4781      2.1026      1.7825      1.5174      1.3042      1.1379      1.0134     0.92542    
 0.86957     0.84252     0.86957     0.90433     0.96449      1.0532      1.1743      1.3322      1.5309      1.7736    
  2.0616      2.3928      2.7607      3.1532      3.5519      3.9332      4.2700      4.5350      4.7047      4.7631    
  4.7047      4.5350      4.2700      3.9333      3.5520      3.1532      2.7607      2.3927      2.0615      1.7736    
  1.5309      1.3322      1.1743      1.0532     0.96449     0.90432     0.86956     0.85821     0.92542     0.96449    
  1.0257      1.1118      1.2263      1.3727      1.5539      1.7719      2.0261      2.3127      2.6237      2.9463    
  3.2633      3.5543      3.7977      3.9732      4.0652      4.0652      3.9732      3.7977      3.5544      3.2633    
  2.9463      2.6237      2.3127      2.0261      1.7719      1.5539      1.3727      1.2263      1.1118      1.0257    
 0.96448     0.92541     0.90640     0.90641      1.0134      1.0532      1.1118      1.1919      1.2964      1.4283    
  1.5895      1.7808      2.0003      2.2428      2.4997      2.7588      3.0046      3.2203      3.3891      3.4969    
  3.5340      3.4969      3.3891      3.2203      3.0046      2.7587      2.4997      2.2428      2.0002      1.7808    
  1.5895      1.4283      1.2964      1.1919      1.1118      1.0532      1.0134     0.99033     0.98281     0.99034    
  1.1379      1.1743      1.2263      1.2964      1.3874      1.5015      1.6401      1.8027      1.9866      2.1861    
  2.3925      2.5946      2.7795      2.9336      3.0444      3.1025      3.1025      3.0444      2.9336      2.7795    
  2.5946      2.3925      2.1861      1.9866      1.8028      1.6401      1.5015      1.3874      1.2964      1.2263    
  1.1743      1.1379      1.1149      1.1038      1.1038      1.1149      1.3042      1.3322      1.3727      1.4283    
  1.5015      1.5943      1.7072      1.8390      1.9866      2.1442      2.3037      2.4556      2.5890      2.6936    
  2.7603      2.7833      2.7603      2.6936      2.5890      2.4556      2.3037      2.1442      1.9866      1.8391    
  1.7072      1.5943      1.5015      1.4283      1.3726      1.3322      1.3042      1.2862      1.2762      1.2730    
  1.2762      1.2862      1.5175      1.5309      1.5539      1.5895      1.6401      1.7072      1.7909      1.8897    
  2.0003      2.1173      2.2337      2.3415      2.4321      2.4977      2.5321      2.5321      2.4977      2.4321    
  2.3415      2.2337      2.1173      2.0003      1.8897      1.7909      1.7072      1.6401      1.5895      1.5539    
  1.5309      1.5174      1.5107      1.5079      1.5070      1.5070      1.5079      1.5107      1.7825      1.7736    
  1.7719      1.7808      1.8027      1.8390      1.8897      1.9531      2.0261      2.1042      2.1813      2.2510    
  2.3067      2.3427      2.3552      2.3427      2.3067      2.2510      2.1813      2.1042      2.0261      1.9531    
  1.8897      1.8390      1.8027      1.7808      1.7719      1.7736      1.7825      1.7949      1.8071      1.8159    
  1.8190      1.8159      1.8071      1.7949      2.1026      2.0616      2.0261      2.0003      1.9866      1.9866    
  2.0003      2.0261      2.0616      2.1026      2.1445      2.1821      2.2104      2.2257      2.2257      2.2105    
  2.1821      2.1445      2.1026      2.0615      2.0261      2.0002      1.9866      1.9866      2.0002      2.0261    
  2.0615      2.1026      2.1445      2.1821      2.2105      2.2257      2.2257      2.2104      2.1821      2.1445    
  2.4781      2.3928      2.3127      2.2428      2.1861      2.1442      2.1173      2.1042      2.1026      2.1093    
  2.1205      2.1322      2.1409      2.1441      2.1409      2.1322      2.1205      2.1093      2.1026      2.1041    
  2.1172      2.1441      2.1861      2.2428      2.3127      2.3928      2.4781      2.5628      2.6395      2.7011    
  2.7411      2.7549      2.7411      2.7011      2.6395      2.5628      2.9050      2.7607      2.6237      2.4997    
  2.3925      2.3037      2.2337      2.1813      2.1445      2.1205      2.1063      2.0989      2.0959      2.0959    
  2.0989      2.1063      2.1205      2.1445      2.1813      2.2337      2.3037      2.3925      2.4997      2.6237    
  2.7607      2.9050      3.0488      3.1825      3.2955      3.3778      3.4212      3.4212      3.3778      3.2955    
  3.1825      3.0488      3.3727      3.1532      2.9463      2.7588      2.5946      2.4556      2.3415      2.2510    
  2.1821      2.1322      2.0989      2.0800      2.0738      2.0800      2.0989      2.1322      2.1820      2.2510    
  2.3414      2.4556      2.5947      2.7588      2.9463      3.1532      3.3728      3.5950      3.8074      3.9952    
  4.1433      4.2384      4.2712      4.2384      4.1433      3.9952      3.8074      3.5950      3.8630      3.5519    
  3.2633      3.0046      2.7795      2.5890      2.4321      2.3067      2.2104      2.1409      2.0959      2.0738    
  2.0738      2.0959      2.1409      2.2104      2.3066      2.4320      2.5890      2.7796      3.0046      3.2634    
  3.5520      3.8630      4.1846      4.5006      4.7911      5.0347      5.2109      5.3035      5.3035      5.2109    
  5.0347      4.7911      4.5006      4.1846      4.3497      3.9332      3.5543      3.2203      2.9336      2.6936    
  2.4977      2.3427      2.2257      2.1441      2.0959      2.0800      2.0959      2.1440      2.2256      2.3426    
  2.4976      2.6936      2.9336      3.2203      3.5544      3.9333      4.3497      4.7903      5.2353      5.6592    
  6.0329      6.3266      6.5148      6.5796      6.5148      6.3267      6.0329      5.6592      5.2353      4.7903    
  4.8003      4.2700      3.7977      3.3891      3.0444      2.7603      2.5321      2.3552      2.2257      2.1409    
  2.0989      2.0989      2.1409      2.2256      2.3551      2.5321      2.7603      3.0445      3.3892      3.7977    
  4.2700      4.8003      5.3750      5.9716      6.5588      7.0989      7.5514      7.8784      8.0501      8.0501    
  7.8784      7.5514      7.0989      6.5588      5.9716      5.3750      5.1797      4.5350      3.9732      3.4969    
  3.1025      2.7833      2.5321      2.3427      2.2105      2.1322      2.1063      2.1322      2.2104      2.3426    
  2.5321      2.7833      3.1025      3.4970      3.9732      4.5350      5.1797      5.8954      6.6585      7.4331    
  8.1732      8.8265      9.3404      9.6695      9.7829      9.6695      9.3404      8.8264      8.1732      7.4331    
  6.6584      5.8954      5.4546      4.7047      4.0652      3.5340      3.1025      2.7603      2.4977      2.3067    
  2.1821      2.1205      2.1205      2.1820      2.3066      2.4976      2.7603      3.1025      3.5340      4.0653    
  4.7047      5.4546      6.3071      7.2399      8.2151      9.1800      10.071      10.819      11.361      11.647    
  11.646      11.361      10.819      10.071      9.1800      8.2151      7.2399      6.3071      5.5992      4.7631    
  4.0652      3.4969      3.0444      2.6936      2.4321      2.2510      2.1445      2.1093      2.1445      2.2510    
  2.4320      2.6936      3.0445      3.4970      4.0653      4.7631      5.5992      6.5717      7.6629      8.8362    
  10.035      11.188      12.212      13.021      13.541      13.721      13.541      13.021      12.212      11.188    
  10.035      8.8361      7.6629      6.5716      5.5992      4.7047      3.9732      3.3891      2.9336      2.5890    
  2.3415      2.1813      2.1026      2.1026      2.1813      2.3414      2.5890      2.9336      3.3892      3.9732    
  4.7047      5.5992      6.6629      7.8858      9.2363      10.660      12.079      13.401      14.521      15.337    
  15.769      15.769      15.337      14.520      13.400      12.079      10.660      9.2362      7.8857      6.6629    
  5.4546      4.5350      3.7977      3.2203      2.7795      2.4556      2.2337      2.1042      2.0615      2.1041    
  2.2337      2.4556      2.7796      3.2203      3.7977      4.5350      5.4546      6.5717      7.8858      9.3745    
  10.989      12.655      14.272      15.724      16.885      17.637      17.898      17.637      16.885      15.724    
  14.272      12.655      10.989      9.3744      7.8857      6.5716      5.1797      4.2700      3.5544      3.0046    
  2.5946      2.3037      2.1173      2.0261      2.0261      2.1172      2.3037      2.5947      3.0046      3.5544    
  4.2700      5.1797      6.3071      7.6629      9.2363      10.989      12.854      14.734      16.507      18.029    
  19.150      19.746      19.746      19.150      18.029      16.507      14.734      12.854      10.989      9.2362    
  7.6628      6.3071      4.8003      3.9333      3.2633      2.7587      2.3925      2.1442      2.0003      1.9531    
  2.0002      2.1441      2.3925      2.7588      3.2634      3.9333      4.8003      5.8954      7.2399      8.8362    
  10.660      12.655      14.734      16.779      18.638      20.139      21.115      21.454      21.115      20.139    
  18.638      16.779      14.734      12.655      10.659      8.8361      7.2399      5.8954      4.3497      3.5520    
  2.9463      2.4997      2.1861      1.9866      1.8897      1.8897      1.9866      2.1861      2.4997      2.9463    
  3.5520      4.3497      5.3750      6.6585      8.2151      10.035      12.079      14.272      16.507      18.638    
  20.483      21.845      22.570      22.570      21.845      20.483      18.638      16.507      14.272      12.079    
  10.035      8.2151      6.6584      5.3750      3.8630      3.1532      2.6237      2.2428      1.9866      1.8391    
  1.7909      1.8390      1.9866      2.2428      2.6237      3.1532      3.8630      4.7903      5.9716      7.4331    
  9.1800      11.188      13.401      15.724      18.029      20.139      21.845      22.957      23.344      22.958    
  21.845      20.139      18.029      15.724      13.401      11.188      9.1799      7.4331      5.9716      4.7903    
  3.3728      2.7607      2.3127      2.0002      1.8028      1.7072      1.7072      1.8027      2.0002      2.3127    
  2.7607      3.3728      4.1846      5.2353      6.5588      8.1732      10.071      12.212      14.521      16.885    
  19.150      21.115      22.570      23.344      23.345      22.570      21.116      19.151      16.885      14.520    
  12.212      10.071      8.1732      6.5588      5.2354      4.1847      2.9050      2.3927      2.0261      1.7808    
  1.6401      1.5943      1.6401      1.7808      2.0261      2.3928      2.9050      3.5950      4.5006      5.6592    
  7.0989      8.8265      10.819      13.021      15.337      17.637      19.746      21.454      22.570      22.958    
  22.570      21.455      19.747      17.637      15.338      13.021      10.819      8.8264      7.0989      5.6594    
  4.5007      3.5951      2.4781      2.0615      1.7719      1.5895      1.5015      1.5015      1.5895      1.7719    
  2.0615      2.4781      3.0488      3.8074      4.7911      6.0329      7.5514      9.3404      11.361      13.541    
  15.769      17.898      19.746      21.115      21.845      21.845      21.116      19.747      17.899      15.769    
  13.541      11.361      9.3404      7.5515      6.0330      4.7912      3.8075      3.0488      2.1026      1.7736    
  1.5539      1.4283      1.3874      1.4283      1.5539      1.7736      2.1026      2.5628      3.1825      3.9952    
  5.0347      6.3266      7.8784      9.6695      11.647      13.721      15.769      17.637      19.150      20.139    
  20.483      20.139      19.151      17.637      15.769      13.721      11.646      9.6695      7.8785      6.3268    
  5.0348      3.9953      3.1825      2.5627      1.7825      1.5309      1.3727      1.2964      1.2964      1.3726    
  1.5309      1.7825      2.1445      2.6395      3.2955      4.1433      5.2109      6.5148      8.0501      9.7829    
  11.646      13.541      15.337      16.885      18.029      18.638      18.638      18.029      16.885      15.338    
  13.541      11.646      9.7829      8.0502      6.5149      5.2111      4.1434      3.2955      2.6395      2.1445    
  1.5174      1.3322      1.2263      1.1919      1.2263      1.3322      1.5174      1.7949      2.1821      2.7011    
  3.3778      4.2384      5.3035      6.5796      8.0501      9.6695      11.361      13.021      14.520      15.724    
  16.507      16.779      16.507      15.724      14.520      13.021      11.361      9.6695      8.0502      6.5797    
  5.3037      4.2385      3.3778      2.7011      2.1820      1.7949      1.3042      1.1743      1.1118      1.1118    
  1.1743      1.3042      1.5107      1.8071      2.2105      2.7411      3.4212      4.2712      5.3035      6.5148    
  7.8784      9.3404      10.819      12.212      13.400      14.272      14.734      14.734      14.272      13.401    
  12.212      10.819      9.3404      7.8785      6.5149      5.3037      4.2713      3.4212      2.7410      2.2104    
  1.8071      1.5106      1.1379      1.0532      1.0257      1.0532      1.1379      1.2862      1.5079      1.8159    
  2.2257      2.7549      3.4212      4.2384      5.2109      6.3267      7.5514      8.8264      10.071      11.188    
  12.079      12.655      12.854      12.655      12.079      11.188      10.071      8.8264      7.5515      6.3268    
  5.2111      4.2385      3.4212      2.7549      2.2256      1.8158      1.5078      1.2862      1.0134     0.96449    