    2    2   15    1
  0.2106988E+02  0.3906031E-09  0.3906031E-09  0.3906031E-09  0.5000000E-15
  1.000000000000000E-004
  CAR 
 unknown system                          
      8     60      8
 
  0.6250000E-01  0.6250000E-01  0.6250000E-01  0.3906250E-02
    1       -6.245516   1.000000
    2        4.784416   1.000000
    3        5.240476   0.998803
    4        5.240476   0.998803
    5        7.852482   0.000000
    6        7.982476   0.000000
    7        7.982476   0.000000
    8        8.578346   0.000000
 
  0.1875000E+00  0.6250000E-01  0.6250000E-01  0.1171875E-01
    1       -5.986150   1.000000
    2        3.295106   1.000000
    3        4.464420   1.000000
    4        5.123749   0.999944
    5        7.869348   0.000000
    6        8.221377   0.000000
    7        8.485502   0.000000
    8       10.100955   0.000000
 
  0.3125000E+00  0.6250000E-01  0.6250000E-01  0.1171875E-01
    1       -5.361183   1.000000
    2        1.132566   1.000000
    3        3.985757   1.000000
    4        4.675833   1.000000
    5        7.416500   0.000000
    6        8.712604   0.000000
    7        8.988385   0.000000
    8       11.710060   0.000000
 
  0.4375000E+00  0.6250000E-01  0.6250000E-01  0.1171875E-01
    1       -4.494039   1.000000
    2       -0.691511   1.000000
    3        3.770896   1.000000
    4        4.281602   1.000000
    5        7.103730   0.000000
    6        8.795602   0.000000
    7        8.809259   0.000000
    8       13.010483   0.000000
 
 -0.4375000E+00  0.6250000E-01  0.6250000E-01  0.1171875E-01
    1       -4.068392   1.000000
    2       -1.362318   1.000000
    3        3.815660   1.000000
    4        4.071726   1.000000
    5        7.025442   0.000000
    6        8.612802   0.000000
    7        8.874658   0.000000
    8       13.111947   0.000000
 
 -0.3125000E+00  0.6250000E-01  0.6250000E-01  0.1171875E-01
    1       -4.790016   1.000000
    2       -0.153599   1.000000
    3        4.092803   1.000000
    4        4.094604   1.000000
    5        7.193571   0.000000
    6        8.606934   0.000000
    7        9.113873   0.000000
    8       12.150093   0.000000
 
 -0.1875000E+00  0.6250000E-01  0.6250000E-01  0.1171875E-01
    1       -5.605984   1.000000
    2        1.840995   1.000000
    3        4.364919   1.000000
    4        4.544542   1.000000
    5        7.558320   0.000000
    6        8.435173   0.000000
    7        9.144344   0.000000
    8       10.942857   0.000000
 
 -0.6250000E-01  0.6250000E-01  0.6250000E-01  0.1171875E-01
    1       -6.115127   1.000000
    2        4.032335   1.000000
    3        4.832027   1.000000
    4        4.976207   1.000000
    5        7.701211   0.000000
    6        8.193392   0.000000
    7        8.540244   0.000000
    8        9.351384   0.000000
 
  0.1875000E+00  0.1875000E+00  0.6250000E-01  0.1171875E-01
    1       -5.855576   1.000000
    2        3.137685   1.000000
    3        4.294678   1.000000
    4        4.364800   1.000000
    5        7.296729   0.000000
    6        8.915837   0.000000
    7        9.371429   0.000000
    8        9.829940   0.000000
 
  0.3125000E+00  0.1875000E+00  0.6250000E-01  0.2343750E-01
    1       -5.348474   1.000000
    2        1.671811   1.000000
    3        3.355554   1.000000
    4        4.115763   1.000000
    5        7.458915   0.000000
    6        9.019931   0.000000
    7        9.767923   0.000000
    8       10.148998   0.000000
 
  0.4375000E+00  0.1875000E+00  0.6250000E-01  0.2343750E-01
    1       -4.534207   1.000000
    2       -0.119120   1.000000
    3        2.862454   1.000000
    4        3.723519   1.000000
    5        7.635930   0.000000
    6        9.009607   0.000000
    7       10.177101   0.000000
    8       10.483251   0.000000
 
 -0.4375000E+00  0.1875000E+00  0.6250000E-01  0.2343750E-01
    1       -3.807809   1.000000
    2       -1.277575   1.000000
    3        2.578474   1.000000
    4        3.635051   1.000000
    5        7.686946   0.000000
    6        8.746044   0.000000
    7       10.042031   0.000000
    8       12.429595   0.000000
 
 -0.3125000E+00  0.1875000E+00  0.6250000E-01  0.2343750E-01
    1       -4.243368   1.000000
    2       -0.617983   1.000000
    3        2.513553   1.000000
    4        3.907625   1.000000
    5        7.934681   0.000000
    6        8.681550   0.000000
    7        9.982093   0.000000
    8       11.705917   0.000000
 
 -0.1875000E+00  0.1875000E+00  0.6250000E-01  0.2343750E-01
    1       -5.109341   1.000000
    2        1.044549   1.000000
    3        2.819352   1.000000
    4        4.395032   1.000000
    5        8.247726   0.000000
    6        8.571283   0.000000
    7        9.854718   0.000000
    8       10.351112   0.000000
 
 -0.6250000E-01  0.1875000E+00  0.6250000E-01  0.2343750E-01
    1       -5.729595   1.000000
    2        2.489335   1.000000
    3        3.907101   1.000000
    4        4.753884   1.000000
    5        7.830866   0.000000
    6        8.413332   0.000000
    7        9.190613   0.000000
    8       10.367619   0.000000
 
  0.3125000E+00  0.3125000E+00  0.6250000E-01  0.1171875E-01
    1       -4.960671   1.000000
    2        1.158767   1.000000
    3        3.219300   1.000000
    4        3.336853   1.000000
    5        6.514599   0.000000
    6        8.148714   0.000000
    7       11.166722   0.000000
    8       11.321790   0.000000
 
  0.4375000E+00  0.3125000E+00  0.6250000E-01  0.2343750E-01
    1       -4.234655   1.000000
    2       -0.042745   1.000000
    3        2.462528   1.000000
    4        3.003581   1.000000
    5        6.822856   0.000000
    6        7.991267   0.000000
    7       11.132529   0.000000
    8       12.284957   0.000000
 
 -0.4375000E+00  0.3125000E+00  0.6250000E-01  0.2343750E-01
    1       -3.373261   1.000000
    2       -1.193480   1.000000
    3        1.652618   1.000000
    4        2.972649   1.000000
    5        7.056464   0.000000
    6        9.606701   0.000000
    7       10.718255   0.000000
    8       12.197806   0.000000
 
 -0.3125000E+00  0.3125000E+00  0.6250000E-01  0.2343750E-01
    1       -3.444026   1.000000
    2       -1.101290   1.000000
    3        1.316269   1.000000
    4        3.303483   1.000000
    5        7.440566   0.000000
    6       10.300464   0.000000
    7       11.544711   0.000000
    8       11.902814   0.000000
 
 -0.1875000E+00  0.3125000E+00  0.6250000E-01  0.2343750E-01
    1       -4.304957   1.000000
    2       -0.169704   1.000000
    3        1.892817   1.000000
    4        3.865789   1.000000
    5        8.028662   0.000000
    6        9.222924   0.000000
    7       10.593943   0.000000
    8       10.901392   0.000000
 
 -0.6250000E-01  0.3125000E+00  0.6250000E-01  0.2343750E-01
    1       -5.000631   1.000000
    2        0.474522   1.000000
    3        3.456509   1.000000
    4        4.298215   1.000000
    5        7.695228   0.000000
    6        8.611247   0.000000
    7        9.451162   0.000000
    8       11.108681   0.000000
 
  0.4375000E+00  0.4375000E+00  0.6250000E-01  0.1171875E-01
    1       -3.601751   1.000000
    2       -0.882735   1.000000
    3        2.555672   1.000000
    4        2.761743   1.000000
    5        6.140713   0.000435
    6        6.845742   0.000000
    7       13.398391   0.000000
    8       13.427098   0.000000
 
 -0.4375000E+00  0.4375000E+00  0.6250000E-01  0.2343750E-01
    1       -2.724077   1.000000
    2       -1.842050   1.000000
    3        2.023671   1.000000
    4        2.530058   1.000000
    5        6.564249   0.000000
    6        7.271445   0.000000
    7       13.168820   0.000000
    8       14.125942   0.000000
 
 -0.3125000E+00  0.4375000E+00  0.6250000E-01  0.2343750E-01
    1       -2.826244   1.000000
    2       -1.675846   1.000000
    3        1.326444   1.000000
    4        2.833847   1.000000
    5        6.915585   0.000000
    6        9.450704   0.000000
    7       11.685232   0.000000
    8       12.784671   0.000000
 
 -0.1875000E+00  0.4375000E+00  0.6250000E-01  0.2343750E-01
    1       -3.559766   1.000000
    2       -1.249182   1.000000
    3        1.835883   1.000000
    4        3.412754   1.000000
    5        7.550721   0.000000
    6        9.462978   0.000000
    7       10.959608   0.000000
    8       12.187331   0.000000
 
 -0.6250000E-01  0.4375000E+00  0.6250000E-01  0.2343750E-01
    1       -4.146295   1.000000
    2       -1.082488   1.000000
    3        3.280146   1.000000
    4        3.976157   1.000000
    5        7.485934   0.000000
    6        8.547378   0.000000
    7        9.288749   0.000000
    8       12.750852   0.000000
 
 -0.4375000E+00 -0.4375000E+00  0.6250000E-01  0.1171875E-01
    1       -2.771607   1.000000
    2       -1.857533   1.000000
    3        2.422492   1.000000
    4        2.644180   1.000000
    5        6.143461   0.000406
    6        6.494520   0.000000
    7       14.447000   0.000000
    8       14.499065   0.000000
 
 -0.3125000E+00 -0.4375000E+00  0.6250000E-01  0.2343750E-01
    1       -3.520490   1.000000
    2       -0.945181   1.000000
    3        2.173909   1.000000
    4        2.684800   1.000000
    5        6.644827   0.000000
    6        7.520008   0.000000
    7       12.124891   0.000000
    8       13.408023   0.000000
 
 -0.1875000E+00 -0.4375000E+00  0.6250000E-01  0.2343750E-01
    1       -3.979725   1.000000
    2       -0.664623   1.000000
    3        2.217626   1.000000
    4        3.262127   1.000000
    5        7.319590   0.000000
    6        9.784278   0.000000
    7        9.950804   0.000000
    8       11.170120   0.000000
 
 -0.3125000E+00 -0.3125000E+00  0.6250000E-01  0.1171875E-01
    1       -4.335326   1.000000
    2        0.131677   1.000000
    3        2.821700   1.000000
    4        2.994471   1.000000
    5        6.262974   0.000014
    6        7.410151   0.000000
    7       12.266129   0.000000
    8       12.361239   0.000000
 
 -0.1875000E+00 -0.3125000E+00  0.6250000E-01  0.2343750E-01
    1       -4.847685   1.000000
    2        0.832419   1.000000
    3        2.865195   1.000000
    4        3.492113   1.000000
    5        7.100917   0.000000
    6        8.639498   0.000000
    7       10.214337   0.000000
    8       11.187381   0.000000
 
 -0.1875000E+00 -0.1875000E+00  0.6250000E-01  0.1171875E-01
    1       -5.469408   1.000000
    2        2.170181   1.000000
    3        3.742585   1.000000
    4        3.777890   1.000000
    5        6.873416   0.000000
    6        8.946749   0.000000
    7       10.162096   0.000000
    8       10.318508   0.000000
 
  0.1875000E+00  0.1875000E+00  0.1875000E+00  0.3906250E-02
    1       -5.858851   1.000000
    2        2.595124   1.000000
    3        4.813953   1.000000
    4        4.813953   1.000000
    5        7.417427   0.000000
    6        8.582640   0.000000
    7        8.582640   0.000000
    8       10.726083   0.000000
 
  0.3125000E+00  0.1875000E+00  0.1875000E+00  0.1171875E-01
    1       -5.479516   1.000000
    2        1.760121   1.000000
    3        3.353917   1.000000
    4        4.827189   1.000000
    5        8.069977   0.000000
    6        8.705392   0.000000
    7        8.979786   0.000000
    8       10.889060   0.000000
 
  0.4375000E+00  0.1875000E+00  0.1875000E+00  0.1171875E-01
    1       -4.758011   1.000000
    2        0.420114   1.000000
    3        2.309251   1.000000
    4        4.340130   1.000000
    5        7.965666   0.000000
    6        9.444433   0.000000
    7        9.628801   0.000000
    8       11.174714   0.000000
 
 -0.4375000E+00  0.1875000E+00  0.1875000E+00  0.1171875E-01
    1       -3.899808   1.000000
    2       -1.009786   1.000000
    3        2.149302   1.000000
    4        3.828163   1.000000
    5        7.504744   0.000000
    6        9.589112   0.000000
    7        9.844178   0.000000
    8       13.005499   0.000000
 
 -0.3125000E+00  0.1875000E+00  0.1875000E+00  0.1171875E-01
    1       -3.884341   1.000000
    2       -1.037513   1.000000
    3        2.434914   1.000000
    4        3.522352   1.000000
    5        7.248700   0.000000
    6        9.647679   0.000000
    7       10.181870   0.000000
    8       11.127520   0.000000
 
 -0.1875000E+00  0.1875000E+00  0.1875000E+00  0.1171875E-01
    1       -4.740964   1.000000
    2        0.416963   1.000000
    3        3.030175   1.000000
    4        3.501314   1.000000
    5        7.186514   0.000000
    6        9.309012   0.000000
    7        9.938777   0.000000
    8       10.530201   0.000000
 
  0.3125000E+00  0.3125000E+00  0.1875000E+00  0.1171875E-01
    1       -5.231231   1.000000
    2        1.116808   1.000000
    3        3.825483   1.000000
    4        3.906140   1.000000
    5        7.548368   0.000000
    6        8.839514   0.000000
    7        9.801854   0.000000
    8       10.199929   0.000000
 
  0.4375000E+00  0.3125000E+00  0.1875000E+00  0.2343750E-01
    1       -4.625956   1.000000
    2        0.347335   1.000000
    3        2.364437   1.000000
    4        3.715309   1.000000
    5        8.043612   0.000000
    6        9.022163   0.000000
    7        9.569798   0.000000
    8       11.016288   0.000000
 
 -0.4375000E+00  0.3125000E+00  0.1875000E+00  0.2343750E-01
    1       -3.767575   1.000000
    2       -0.728754   1.000000
    3        1.605479   1.000000
    4        3.171720   1.000000
    5        8.486422   0.000000
    6        8.963925   0.000000
    7       10.209486   0.000000
    8       12.085972   0.000000
 
 -0.3125000E+00  0.3125000E+00  0.1875000E+00  0.2343750E-01
    1       -3.301190   1.000000
    2       -1.316002   1.000000
    3        1.603085   1.000000
    4        2.872317   1.000000
    5        8.035869   0.000000
    6        9.283179   0.000000
    7       10.973807   0.000000
    8       12.201258   0.000000
 
 -0.1875000E+00  0.3125000E+00  0.1875000E+00  0.2343750E-01
    1       -4.040235   1.000000
    2       -0.353127   1.000000
    3        2.015451   1.000000
    4        3.043654   1.000000
    5        7.772245   0.000000
    6        8.971742   0.000000
    7        9.776930   0.000000
    8       12.202835   0.000000
 
  0.4375000E+00  0.4375000E+00  0.1875000E+00  0.1171875E-01
    1       -4.145545   1.000000
    2       -0.292319   1.000000
    3        2.333559   1.000000
    4        3.181064   1.000000
    5        6.825033   0.000000
    6        8.807246   0.000000
    7       10.959813   0.000000
    8       11.334239   0.000000
 
 -0.4375000E+00  0.4375000E+00  0.1875000E+00  0.2343750E-01
    1       -3.369631   1.000000
    2       -1.080264   1.000000
    3        1.784568   1.000000
    4        2.528511   1.000000
    5        7.577987   0.000000
    6        8.572860   0.000000
    7       10.651969   0.000000
    8       13.370375   0.000000
 
 -0.3125000E+00  0.4375000E+00  0.1875000E+00  0.2343750E-01
    1       -2.592591   1.000000
    2       -1.815851   1.000000
    3        1.483195   1.000000
    4        2.048059   1.000000
    5        8.675668   0.000000
    6        9.596831   0.000000
    7       10.204977   0.000000
    8       11.200065   0.000000
 
 -0.1875000E+00  0.4375000E+00  0.1875000E+00  0.2343750E-01
    1       -3.174825   1.000000
    2       -1.278259   1.000000
    3        1.470971   1.000000
    4        2.505116   1.000000
    5        8.771458   0.000000
    6        9.178098   0.000000
    7        9.905954   0.000000
    8       12.337180   0.000000
 
 -0.4375000E+00 -0.4375000E+00  0.1875000E+00  0.1171875E-01
    1       -2.747813   1.000000
    2       -1.790938   1.000000
    3        1.582801   1.000000
    4        2.849278   1.000000
    5        6.411359   0.000000
    6        8.259478   0.000000
    7       13.097060   0.000000
    8       13.257224   0.000000
 
 -0.3125000E+00 -0.4375000E+00  0.1875000E+00  0.2343750E-01
    1       -2.650476   1.000000
    2       -1.824229   1.000000
    3        1.673127   1.000000
    4        2.251605   1.000000
    5        7.478602   0.000000
    6        8.371883   0.000000
    7       11.633762   0.000000
    8       12.718155   0.000000
 
 -0.3125000E+00 -0.3125000E+00  0.1875000E+00  0.1171875E-01
    1       -3.463280   1.000000
    2       -1.040075   1.000000
    3        1.835714   1.000000
    4        2.961008   1.000000
    5        6.554287   0.000000
    6        8.441070   0.000000
    7       12.092460   0.000000
    8       12.215575   0.000000
 
  0.3125000E+00  0.3125000E+00  0.3125000E+00  0.3906250E-02
    1       -5.128353   1.000000
    2        0.452598   1.000000
    3        4.411426   1.000000
    4        4.411426   1.000000
    5        6.964557   0.000000
    6        8.829576   0.000000
    7        8.829576   0.000000
    8       12.765471   0.000000
 
  0.4375000E+00  0.3125000E+00  0.3125000E+00  0.1171875E-01
    1       -4.665603   1.000000
    2       -0.116252   1.000000
    3        2.987333   1.000000
    4        4.325294   1.000000
    5        7.698390   0.000000
    6        9.042488   0.000000
    7        9.095078   0.000000
    8       12.180642   0.000000
 
 -0.4375000E+00  0.3125000E+00  0.3125000E+00  0.1171875E-01
    1       -3.901627   1.000000
    2       -0.659404   1.000000
    3        1.527562   1.000000
    4        3.766751   1.000000
    5        7.443536   0.000000
    6       10.441639   0.000000
    7       10.587045   0.000000
    8       11.920807   0.000000
 
 -0.3125000E+00  0.3125000E+00  0.3125000E+00  0.1171875E-01
    1       -3.111855   1.000000
    2       -1.425730   1.000000
    3        1.208515   1.000000
    4        3.239465   1.000000
    5        6.859508   0.000000
    6       10.668187   0.000000
    7       11.679142   0.000000
    8       11.885478   0.000000
 
  0.4375000E+00  0.4375000E+00  0.3125000E+00  0.1171875E-01
    1       -4.363774   1.000000
    2       -0.654586   1.000000
    3        3.304323   1.000000
    4        3.784053   1.000000
    5        7.452366   0.000000
    6        8.797583   0.000000
    7        9.569932   0.000000
    8       11.554490   0.000000
 
 -0.4375000E+00  0.4375000E+00  0.3125000E+00  0.2343750E-01
    1       -3.766762   1.000000
    2       -1.018680   1.000000
    3        2.047521   1.000000
    4        3.329917   1.000000
    5        8.225366   0.000000
    6        8.596773   0.000000
    7       11.030203   0.000000
    8       11.316566   0.000000
 
 -0.3125000E+00  0.4375000E+00  0.3125000E+00  0.2343750E-01
    1       -2.977457   1.000000
    2       -1.494701   1.000000
    3        1.297620   1.000000
    4        2.644561   1.000000
    5        7.913871   0.000000
    6       10.112571   0.000000
    7       10.860787   0.000000
    8       11.364180   0.000000
 
 -0.4375000E+00 -0.4375000E+00  0.3125000E+00  0.1171875E-01
    1       -3.422311   1.000000
    2       -1.295745   1.000000
    3        1.676287   1.000000
    4        3.335933   1.000000
    5        7.000393   0.000000
    6       10.624944   0.000000
    7       10.922661   0.000000
    8       10.937587   0.000000
 
  0.4375000E+00  0.4375000E+00  0.4375000E+00  0.3906250E-02
    1       -4.275590   1.000000
    2       -1.135767   1.000000
    3        4.195232   1.000000
    4        4.195232   1.000000
    5        6.712680   0.000000
    6        8.709877   0.000000
    7        8.709877   0.000000
    8       13.016124   0.000000
 
 -0.4375000E+00  0.4375000E+00  0.4375000E+00  0.1171875E-01
    1       -3.938952   1.000000
    2       -1.310311   1.000000
    3        2.999901   1.000000
    4        3.938257   1.000000
    5        7.463764   0.000000
    6        8.810342   0.000000
    7        9.270800   0.000000
    8       13.342203   0.000000
