       N       E                     dE             d eps       ncg     rms          rms(c)
DAV:   1     0.396132442812E+01    0.39613E+01   -0.26801E+03   968   0.578E+02
DAV:   2    -0.108122838129E+02   -0.14774E+02   -0.14082E+02  1512   0.717E+01
DAV:   3    -0.109887000288E+02   -0.17642E+00   -0.17642E+00  1192   0.102E+01
DAV:   4    -0.109894914746E+02   -0.79145E-03   -0.79145E-03  1592   0.736E-01
DAV:   5    -0.109894920644E+02   -0.58986E-06   -0.58940E-06  1184   0.157E-02    0.288E+00
DAV:   6    -0.108856111005E+02    0.10388E+00   -0.66155E-02  1128   0.134E+00    0.172E+00
DAV:   7    -0.108363530947E+02    0.49258E-01   -0.12819E-01  1216   0.199E+00    0.143E-01
DAV:   8    -0.108376824278E+02   -0.13293E-02   -0.37846E-03  1136   0.452E-01    0.253E-02
DAV:   9    -0.108377879627E+02   -0.10553E-03   -0.10742E-04   776   0.831E-02
   1 F= -.10837788E+02 E0= -.10837778E+02  d E =-.108378E+02
