 vasp.5.4.4.18Apr17-6-g9f103f2a35 (build Dec 09 2018 21:25:21) complex          
  
 executed on IFC18.0.1.163_CrayMP date 2019.03.23  21:22:40
 running on    8 total cores
 distrk:  each k-point on    8 cores,    1 groups
 distr:  one band on NCORES_PER_BAND=   1 cores,    8 groups


--------------------------------------------------------------------------------------------------------


 INCAR:
 POTCAR:   PAW_PBE Si 05Jan2001                   

 ----------------------------------------------------------------------------- 
|                                                                             |
|           W    W    AA    RRRRR   N    N  II  N    N   GGGG   !!!           |
|           W    W   A  A   R    R  NN   N  II  NN   N  G    G  !!!           |
|           W    W  A    A  R    R  N N  N  II  N N  N  G       !!!           |
|           W WW W  AAAAAA  RRRRR   N  N N  II  N  N N  G  GGG   !            |
|           WW  WW  A    A  R   R   N   NN  II  N   NN  G    G                |
|           W    W  A    A  R    R  N    N  II  N    N   GGGG   !!!           |
|                                                                             |
|      For optimal performance we recommend to set                            |
|        NCORE= 4 - approx SQRT( number of cores)                             |
|      NCORE specifies how many cores store one orbital (NPAR=cpu/NCORE).     |
|      This setting can  greatly improve the performance of VASP for DFT.     |
|      The default,   NCORE=1            might be grossly inefficient         |
|      on modern multi-core architectures or massively parallel machines.     |
|      Do your own testing !!!!                                               |
|      Unfortunately you need to use the default for GW and RPA calculations. |
|      (for HF NCORE is supported but not extensively tested yet)             |
|                                                                             |
 ----------------------------------------------------------------------------- 

 POTCAR:   PAW_PBE Si 05Jan2001                   
   VRHFIN =Si: s2p2                                                             
   LEXCH  = PE                                                                  
   EATOM  =   103.0669 eV,    7.5752 Ry                                         
                                                                                
   TITEL  = PAW_PBE Si 05Jan2001                                                
   LULTRA =        F    use ultrasoft PP ?                                      
   IUNSCR =        1    unscreen: 0-lin 1-nonlin 2-no                           
   RPACOR =    1.500    partial core radius                                     
   POMASS =   28.085; ZVAL   =    4.000    mass and valenz                      
   RCORE  =    1.900    outmost cutoff radius                                   
   RWIGS  =    2.480; RWIGS  =    1.312    wigner-seitz radius (au A)           
   ENMAX  =  245.345; ENMIN  =  184.009 eV                                      
   ICORE  =        2    local potential                                         
   LCOR   =        T    correct aug charges                                     
   LPAW   =        T    paw PP                                                  
   EAUG   =  322.069                                                            
   DEXC   =    -.007                                                            
   RMAX   =    2.944    core radius for proj-oper                               
   RAUG   =    1.300    factor for augmentation sphere                          
   RDEP   =    1.993    radius for radial grids                                 
   QCUT   =   -4.246; QGAM   =    8.493    optimization parameters              
                                                                                
   Description                                                                  
     l     E      TYP  RCUT    TYP  RCUT                                        
     0   .000     23  1.900                                                     
     0   .000     23  1.900                                                     
     1   .000     23  1.900                                                     
     1   .000     23  1.900                                                     
     2   .000      7  1.900                                                     
  local pseudopotential read in
  partial core-charges read in
  atomic valenz-charges read in
  non local Contribution for L=           0  read in
    real space projection operators read in
  non local Contribution for L=           0  read in
    real space projection operators read in
  non local Contribution for L=           1  read in
    real space projection operators read in
  non local Contribution for L=           1  read in
    real space projection operators read in
    PAW grid and wavefunctions read in
 
   number of l-projection  operators is LMAX  =           4
   number of lm-projection operators is LMMAX =           8
 
 PAW_PBE Si 05Jan2001                   :
 energy of atom  1       EATOM= -103.0669
 kinetic energy error for atom=    0.0013 (will be added to EATOM!!)
 
 
 POSCAR: Si2                                     
  positions in direct lattice
  No initial velocities read in
 exchange correlation table for  LEXCH =        8
   RHO(1)=    0.500       N(1)  =     2000
   RHO(2)=  100.500       N(2)  =     4000
 


--------------------------------------------------------------------------------------------------------


 ion  position               nearest neighbor table
   1  0.500  0.500  0.500-   2 2.39   2 2.39   2 2.39   2 2.39
   2  0.750  0.750  0.750-   1 2.39   1 2.39   1 2.39   1 2.39
 
  LATTYP: Found a face centered cubic cell.
 ALAT       =     5.5239620000
  
  Lattice vectors:
  
 A1 = (   0.0000000000,   2.7619810000,   2.7619810000)
 A2 = (   2.7619810000,   0.0000000000,   2.7619810000)
 A3 = (   2.7619810000,   2.7619810000,   0.0000000000)


Analysis of symmetry for initial positions (statically):
=====================================================================
 Subroutine PRICEL returns:
 Original cell was already a primitive cell.
 

 Routine SETGRP: Setting up the symmetry group for a 
 face centered cubic supercell.


 Subroutine GETGRP returns: Found 48 space group operations
 (whereof 24 operations were pure point group operations)
 out of a pool of 48 trial point group operations.


The static configuration has the point symmetry T_d .
 The point group associated with its full space group is O_h .


Analysis of symmetry for dynamics (positions and initial velocities):
=====================================================================
 Subroutine PRICEL returns:
 Original cell was already a primitive cell.
 

 Routine SETGRP: Setting up the symmetry group for a 
 face centered cubic supercell.


 Subroutine GETGRP returns: Found 48 space group operations
 (whereof 24 operations were pure point group operations)
 out of a pool of 48 trial point group operations.


The dynamic configuration has the point symmetry T_d .
 The point group associated with its full space group is O_h .


 Subroutine INISYM returns: Found 48 space group operations
 (whereof 24 operations are pure point group operations),
 and found     1 'primitive' translations

 
 
 KPOINTS: Automatic kpoint scheme                 

Automatic generation of k-mesh.
Space group operators:
 irot       det(A)        alpha          n_x          n_y          n_z        tau_x        tau_y        tau_z
    1     1.000000     0.000000     1.000000     0.000000     0.000000     0.000000     0.000000     0.000000
    2     1.000000   120.000000    -0.577350    -0.577350    -0.577350     0.000000     0.000000     0.000000
    3     1.000000   120.000000     0.577350     0.577350     0.577350     0.000000     0.000000     0.000000
    4    -1.000000    90.000000    -0.000000    -0.000000    -1.000000     0.000000     0.000000     0.000000
    5    -1.000000   180.000000     0.000000     0.707107     0.707107     0.000000     0.000000     0.000000
    6    -1.000000    90.000000    -0.000000     1.000000    -0.000000     0.000000     0.000000     0.000000
    7     1.000000   180.000000     0.000000    -0.000000    -1.000000     0.000000     0.000000     0.000000
    8     1.000000   120.000000    -0.577350     0.577350     0.577350     0.000000     0.000000     0.000000
    9     1.000000   120.000000    -0.577350     0.577350    -0.577350     0.000000     0.000000     0.000000
   10    -1.000000    90.000000     0.000000     0.000000     1.000000     0.000000     0.000000     0.000000
   11    -1.000000    90.000000    -1.000000     0.000000    -0.000000     0.000000     0.000000     0.000000
   12    -1.000000   180.000000     0.707107     0.000000     0.707107     0.000000     0.000000     0.000000
   13     1.000000   120.000000     0.577350    -0.577350     0.577350     0.000000     0.000000     0.000000
   14     1.000000   120.000000    -0.577350    -0.577350     0.577350     0.000000     0.000000     0.000000
   15     1.000000   180.000000     1.000000     0.000000     0.000000     0.000000     0.000000     0.000000
   16    -1.000000    90.000000     0.000000    -1.000000     0.000000     0.000000     0.000000     0.000000
   17    -1.000000   180.000000     0.707107     0.707107    -0.000000     0.000000     0.000000     0.000000
   18    -1.000000    90.000000     1.000000     0.000000     0.000000     0.000000     0.000000     0.000000
   19     1.000000   120.000000     0.577350    -0.577350    -0.577350     0.000000     0.000000     0.000000
   20     1.000000   180.000000    -0.000000    -1.000000    -0.000000     0.000000     0.000000     0.000000
   21     1.000000   120.000000     0.577350     0.577350    -0.577350     0.000000     0.000000     0.000000
   22    -1.000000   180.000000    -0.000000    -0.707107     0.707107     0.000000     0.000000     0.000000
   23    -1.000000   180.000000     0.707107    -0.707107     0.000000     0.000000     0.000000     0.000000
   24    -1.000000   180.000000    -0.707107     0.000000     0.707107     0.000000     0.000000     0.000000
   25    -1.000000     0.000000     1.000000     0.000000     0.000000     0.250000     0.250000     0.250000
   26    -1.000000   120.000000    -0.577350    -0.577350    -0.577350     0.250000     0.250000     0.250000
   27    -1.000000   120.000000     0.577350     0.577350     0.577350     0.250000     0.250000     0.250000
   28     1.000000    90.000000    -0.000000    -0.000000    -1.000000     0.250000     0.250000     0.250000
   29     1.000000   180.000000     0.000000     0.707107     0.707107     0.250000     0.250000     0.250000
   30     1.000000    90.000000    -0.000000     1.000000    -0.000000     0.250000     0.250000     0.250000
   31    -1.000000   180.000000     0.000000    -0.000000    -1.000000     0.250000     0.250000     0.250000
   32    -1.000000   120.000000    -0.577350     0.577350     0.577350     0.250000     0.250000     0.250000
   33    -1.000000   120.000000    -0.577350     0.577350    -0.577350     0.250000     0.250000     0.250000
   34     1.000000    90.000000     0.000000     0.000000     1.000000     0.250000     0.250000     0.250000
   35     1.000000    90.000000    -1.000000     0.000000    -0.000000     0.250000     0.250000     0.250000
   36     1.000000   180.000000     0.707107     0.000000     0.707107     0.250000     0.250000     0.250000
   37    -1.000000   120.000000     0.577350    -0.577350     0.577350     0.250000     0.250000     0.250000
   38    -1.000000   120.000000    -0.577350    -0.577350     0.577350     0.250000     0.250000     0.250000
   39    -1.000000   180.000000     1.000000     0.000000     0.000000     0.250000     0.250000     0.250000
   40     1.000000    90.000000     0.000000    -1.000000     0.000000     0.250000     0.250000     0.250000
   41     1.000000   180.000000     0.707107     0.707107    -0.000000     0.250000     0.250000     0.250000
   42     1.000000    90.000000     1.000000     0.000000     0.000000     0.250000     0.250000     0.250000
   43    -1.000000   120.000000     0.577350    -0.577350    -0.577350     0.250000     0.250000     0.250000
   44    -1.000000   180.000000    -0.000000    -1.000000    -0.000000     0.250000     0.250000     0.250000
   45    -1.000000   120.000000     0.577350     0.577350    -0.577350     0.250000     0.250000     0.250000
   46     1.000000   180.000000    -0.000000    -0.707107     0.707107     0.250000     0.250000     0.250000
   47     1.000000   180.000000     0.707107    -0.707107     0.000000     0.250000     0.250000     0.250000
   48     1.000000   180.000000    -0.707107     0.000000     0.707107     0.250000     0.250000     0.250000
 
 Subroutine IBZKPT returns following result:
 ===========================================
 
 Found     60 irreducible k-points:
 
 Following reciprocal coordinates:
            Coordinates               Weight
  0.062500  0.062500  0.062500     96.000000
  0.187500  0.062500  0.062500    288.000000
  0.312500  0.062500  0.062500    288.000000
  0.437500  0.062500  0.062500    288.000000
 -0.437500  0.062500  0.062500    288.000000
 -0.312500  0.062500  0.062500    288.000000
 -0.187500  0.062500  0.062500    288.000000
 -0.062500  0.062500  0.062500    288.000000
  0.187500  0.187500  0.062500    288.000000
  0.312500  0.187500  0.062500    576.000000
  0.437500  0.187500  0.062500    576.000000
 -0.437500  0.187500  0.062500    576.000000
 -0.312500  0.187500  0.062500    576.000000
 -0.187500  0.187500  0.062500    576.000000
 -0.062500  0.187500  0.062500    576.000000
  0.312500  0.312500  0.062500    288.000000
  0.437500  0.312500  0.062500    576.000000
 -0.437500  0.312500  0.062500    576.000000
 -0.312500  0.312500  0.062500    576.000000
 -0.187500  0.312500  0.062500    576.000000
 -0.062500  0.312500  0.062500    576.000000
  0.437500  0.437500  0.062500    288.000000
 -0.437500  0.437500  0.062500    576.000000
 -0.312500  0.437500  0.062500    576.000000
 -0.187500  0.437500  0.062500    576.000000
 -0.062500  0.437500  0.062500    576.000000
 -0.437500 -0.437500  0.062500    288.000000
 -0.312500 -0.437500  0.062500    576.000000
 -0.187500 -0.437500  0.062500    576.000000
 -0.312500 -0.312500  0.062500    288.000000
 -0.187500 -0.312500  0.062500    576.000000
 -0.187500 -0.187500  0.062500    288.000000
  0.187500  0.187500  0.187500     96.000000
  0.312500  0.187500  0.187500    288.000000
  0.437500  0.187500  0.187500    288.000000
 -0.437500  0.187500  0.187500    288.000000
 -0.312500  0.187500  0.187500    288.000000
 -0.187500  0.187500  0.187500    288.000000
  0.312500  0.312500  0.187500    288.000000
  0.437500  0.312500  0.187500    576.000000
 -0.437500  0.312500  0.187500    576.000000
 -0.312500  0.312500  0.187500    576.000000
 -0.187500  0.312500  0.187500    576.000000
  0.437500  0.437500  0.187500    288.000000
 -0.437500  0.437500  0.187500    576.000000
 -0.312500  0.437500  0.187500    576.000000
 -0.187500  0.437500  0.187500    576.000000
 -0.437500 -0.437500  0.187500    288.000000
 -0.312500 -0.437500  0.187500    576.000000
 -0.312500 -0.312500  0.187500    288.000000
  0.312500  0.312500  0.312500     96.000000
  0.437500  0.312500  0.312500    288.000000
 -0.437500  0.312500  0.312500    288.000000
 -0.312500  0.312500  0.312500    288.000000
  0.437500  0.437500  0.312500    288.000000
 -0.437500  0.437500  0.312500    576.000000
 -0.312500  0.437500  0.312500    576.000000
 -0.437500 -0.437500  0.312500    288.000000
  0.437500  0.437500  0.437500     96.000000
 -0.437500  0.437500  0.437500    288.000000
 
 Following cartesian coordinates:
            Coordinates               Weight
  0.011314  0.011314  0.011314     96.000000
 -0.011314  0.033943  0.033943    288.000000
 -0.033943  0.056572  0.056572    288.000000
 -0.056572  0.079200  0.079200    288.000000
  0.101829 -0.079200 -0.079200    288.000000
  0.079200 -0.056572 -0.056572    288.000000
  0.056572 -0.033943 -0.033943    288.000000
  0.033943 -0.011314 -0.011314    288.000000
  0.011314  0.011314  0.056572    288.000000
 -0.011314  0.033943  0.079200    576.000000
 -0.033943  0.056572  0.101829    576.000000
  0.124458 -0.101829 -0.056572    576.000000
  0.101829 -0.079200 -0.033943    576.000000
  0.079200 -0.056572 -0.011314    576.000000
  0.056572 -0.033943  0.011314    576.000000
  0.011314  0.011314  0.101829    288.000000
 -0.011314  0.033943  0.124458    576.000000
  0.147086 -0.124458 -0.033943    576.000000
  0.124458 -0.101829 -0.011314    576.000000
  0.101829 -0.079200  0.011314    576.000000
  0.079200 -0.056572  0.033943    576.000000
  0.011314  0.011314  0.147086    288.000000
  0.169715 -0.147086 -0.011314    576.000000
  0.147086 -0.124458  0.011314    576.000000
  0.124458 -0.101829  0.033943    576.000000
  0.101829 -0.079200  0.056572    576.000000
  0.011314  0.011314 -0.169715    288.000000
 -0.011314  0.033943 -0.147086    576.000000
 -0.033943  0.056572 -0.124458    576.000000
  0.011314  0.011314 -0.124458    288.000000
 -0.011314  0.033943 -0.101829    576.000000
  0.011314  0.011314 -0.079200    288.000000
  0.033943  0.033943  0.033943     96.000000
  0.011314  0.056572  0.056572    288.000000
 -0.011314  0.079200  0.079200    288.000000
  0.147086 -0.079200 -0.079200    288.000000
  0.124458 -0.056572 -0.056572    288.000000
  0.101829 -0.033943 -0.033943    288.000000
  0.033943  0.033943  0.079200    288.000000
  0.011314  0.056572  0.101829    576.000000
  0.169715 -0.101829 -0.056572    576.000000
  0.147086 -0.079200 -0.033943    576.000000
  0.124458 -0.056572 -0.011314    576.000000
  0.033943  0.033943  0.124458    288.000000
  0.192344 -0.124458 -0.033943    576.000000
  0.169715 -0.101829 -0.011314    576.000000
  0.147086 -0.079200  0.011314    576.000000
  0.033943  0.033943 -0.192344    288.000000
  0.011314  0.056572 -0.169715    576.000000
  0.033943  0.033943 -0.147086    288.000000
  0.056572  0.056572  0.056572     96.000000
  0.033943  0.079200  0.079200    288.000000
  0.192344 -0.079200 -0.079200    288.000000
  0.169715 -0.056572 -0.056572    288.000000
  0.056572  0.056572  0.101829    288.000000
  0.214973 -0.101829 -0.056572    576.000000
  0.192344 -0.079200 -0.033943    576.000000
  0.056572  0.056572 -0.214973    288.000000
  0.079200  0.079200  0.079200     96.000000
  0.237601 -0.079200 -0.079200    288.000000
 


--------------------------------------------------------------------------------------------------------




 Dimension of arrays:
   k-points           NKPTS =     60   k-points in BZ     NKDIM =     60   number of bands    NBANDS=      8
   number of dos      NEDOS =    301   number of ions     NIONS =      2
   non local maximal  LDIM  =      4   non local SUM 2l+1 LMDIM =      8
   total plane-waves  NPLWV =   5832
   max r-space proj   IRMAX =      1   max aug-charges    IRDMAX=   4826
   dimension x,y,z NGX =    18 NGY =   18 NGZ =   18
   dimension x,y,z NGXF=    36 NGYF=   36 NGZF=   36
   support grid    NGXF=    36 NGYF=   36 NGZF=   36
   ions per type =               2
   NGX,Y,Z   is equivalent  to a cutoff of   7.66,  7.66,  7.66 a.u.
   NGXF,Y,Z  is equivalent  to a cutoff of  15.32, 15.32, 15.32 a.u.

 SYSTEM =  unknown system                          
 POSCAR =  Si2                                     

 Startparameter for this run:
   NWRITE =      2    write-flag & timer
   PREC   = normal    normal or accurate (medium, high low for compatibility)
   ISTART =      0    job   : 0-new  1-cont  2-samecut
   ICHARG =      2    charge: 1-file 2-atom 10-const
   ISPIN  =      1    spin polarized calculation?
   LNONCOLLINEAR =      F non collinear calculations
   LSORBIT =      F    spin-orbit coupling
   INIWAV =      1    electr: 0-lowe 1-rand  2-diag
   LASPH  =      F    aspherical Exc in radial PAW
   METAGGA=      F    non-selfconsistent MetaGGA calc.

 Electronic Relaxation 1
   ENCUT  =  350.0 eV  25.72 Ry    5.07 a.u.   5.96  5.96  5.96*2*pi/ulx,y,z
   ENINI  =  350.0     initial cutoff
   ENAUG  =  322.1 eV  augmentation charge cutoff
   NELM   =     60;   NELMIN=  2; NELMDL= -5     # of ELM steps 
   EDIFF  = 0.4E-03   stopping-criterion for ELM
   LREAL  =      F    real-space projection
   NLSPLINE    = F    spline interpolate recip. space projectors
   LCOMPAT=      F    compatible to vasp.4.4
   GGA_COMPAT  = T    GGA compatible to vasp.4.4-vasp.4.6
   LMAXPAW     = -100 max onsite density
   LMAXMIX     =    2 max onsite mixed and CHGCAR
   VOSKOWN=      0    Vosko Wilk Nusair interpolation
   ROPT   =    0.00000
 Ionic relaxation
   EDIFFG = -.1E-01   stopping-criterion for IOM
   NSW    =     15    number of steps for IOM
   NBLOCK =      1;   KBLOCK =     15    inner block; outer block 
   IBRION =      2    ionic relax: 0-MD 1-quasi-New 2-CG
   NFREE  =      1    steps in history (QN), initial steepest desc. (CG)
   ISIF   =      2    stress and relaxation
   IWAVPR =     11    prediction:  0-non 1-charg 2-wave 3-comb
   ISYM   =      2    0-nonsym 1-usesym 2-fastsym
   LCORR  =      T    Harris-Foulkes like correction to forces

   POTIM  = 0.5000    time-step for ionic-motion
   TEIN   =    0.0    initial temperature
   TEBEG  =    0.0;   TEEND  =   0.0 temperature during run
   SMASS  =  -3.00    Nose mass-parameter (am)
   estimated Nose-frequenzy (Omega)   =  0.10E-29 period in steps =****** mass=  -0.349E-27a.u.
   SCALEE = 1.0000    scale energy and forces
   NPACO  =    256;   APACO  = 16.0  distance and # of slots for P.C.
   PSTRESS=    0.0 pullay stress

  Mass of Ions in am
   POMASS =  28.09
  Ionic Valenz
   ZVAL   =   4.00
  Atomic Wigner-Seitz radii
   RWIGS  =  -1.00
  virtual crystal weights 
   VCA    =   1.00
   NELECT =       8.0000    total number of electrons
   NUPDOWN=      -1.0000    fix difference up-down

 DOS related values:
   EMIN   =  10.00;   EMAX   =-10.00  energy-range for DOS
   EFERMI =   0.00
   ISMEAR =     0;   SIGMA  =   0.20  broadening in eV -4-tet -1-fermi 0-gaus

 Electronic relaxation 2 (details)
   IALGO  =     38    algorithm
   LDIAG  =      T    sub-space diagonalisation (order eigenvalues)
   LSUBROT=      F    optimize rotation matrix (better conditioning)
   TURBO    =      0    0=normal 1=particle mesh
   IRESTART =      0    0=no restart 2=restart with 2 vectors
   NREBOOT  =      0    no. of reboots
   NMIN     =      0    reboot dimension
   EREF     =   0.00    reference energy to select bands
   IMIX   =      4    mixing-type and parameters
     AMIX     =   0.40;   BMIX     =  1.00
     AMIX_MAG =   1.60;   BMIX_MAG =  1.00
     AMIN     =   0.10
     WC   =   100.;   INIMIX=   1;  MIXPRE=   1;  MAXMIX= -45

 Intra band minimization:
   WEIMIN = 0.0010     energy-eigenvalue tresh-hold
   EBREAK =  0.13E-04  absolut break condition
   DEPER  =   0.30     relativ break condition  

   TIME   =   0.40     timestep for ELM

  volume/ion in A,a.u.               =      21.07       142.19
  Fermi-wavevector in a.u.,A,eV,Ry     =   0.940894  1.778032 12.044992  0.885282
  Thomas-Fermi vector in A             =   2.068351
 
 Write flags
   LWAVE        =      T    write WAVECAR
   LDOWNSAMPLE  =      F    k-point downsampling of WAVECAR
   LCHARG       =      T    write CHGCAR
   LVTOT        =      F    write LOCPOT, total local potential
   LVHAR        =      F    write LOCPOT, Hartree potential only
   LELF         =      F    write electronic localiz. function (ELF)
   LORBIT       =      0    0 simple, 1 ext, 2 COOP (PROOUT), +10 PAW based schemes


 Dipole corrections
   LMONO  =      F    monopole corrections only (constant potential shift)
   LDIPOL =      F    correct potential (dipole corrections)
   IDIPOL =      0    1-x, 2-y, 3-z, 4-all directions 
   EPSILON=  1.0000000 bulk dielectric constant

 Exchange correlation treatment:
   GGA     =    --    GGA type
   LEXCH   =     8    internal setting for exchange type
   VOSKOWN=      0    Vosko Wilk Nusair interpolation
   LHFCALC =     F    Hartree Fock is set to
   LHFONE  =     F    Hartree Fock one center treatment
   AEXX    =    0.0000 exact exchange contribution

 Linear response parameters
   LEPSILON=     F    determine dielectric tensor
   LRPA    =     F    only Hartree local field effects (RPA)
   LNABLA  =     F    use nabla operator in PAW spheres
   LVEL    =     F    velocity operator in full k-point grid
   LINTERFAST=   F  fast interpolation
   KINTER  =     0    interpolate to denser k-point grid
   CSHIFT  =0.1000    complex shift for real part using Kramers Kronig
   OMEGAMAX=  -1.0    maximum frequency
   DEG_THRESHOLD= 0.2000000E-02 threshold for treating states as degnerate
   RTIME   =   -0.100 relaxation time in fs
  (WPLASMAI=    0.000 imaginary part of plasma frequency in eV, 0.658/RTIME)
   DFIELD  = 0.0000000 0.0000000 0.0000000 field for delta impulse in time
 
 Orbital magnetization related:
   ORBITALMAG=     F  switch on orbital magnetization
   LCHIMAG   =     F  perturbation theory with respect to B field
   DQ        =  0.001000  dq finite difference perturbation B field
   LLRAUG    =     F  two centre corrections for induced B field



--------------------------------------------------------------------------------------------------------


 conjugate gradient relaxation of ions
 charge density and potential will be updated during run
 non-spin polarized calculation
 Variant of blocked Davidson
 Davidson routine will perform the subspace rotation
 perform sub-space diagonalisation
    after iterative eigenvector-optimisation
 modified Broyden-mixing scheme, WC =      100.0
 initial mixing is a Kerker type mixing with AMIX =  0.4000 and BMIX =      1.0000
 Hartree-type preconditioning will be used
 using additional bands            4
 reciprocal scheme for non local part
 use partial core corrections
 calculate Harris-corrections to forces 
   (improved forces if not selfconsistent)
 use gradient corrections 
 use of overlap-Matrix (Vanderbilt PP)
 Gauss-broadening in eV      SIGMA  =   0.20


--------------------------------------------------------------------------------------------------------


  energy-cutoff  :      350.00
  volume of cell :       42.14
      direct lattice vectors                 reciprocal lattice vectors
     0.000000000  2.761981000  2.761981000    -0.181029486  0.181029486  0.181029486
     2.761981000  0.000000000  2.761981000     0.181029486 -0.181029486  0.181029486
     2.761981000  2.761981000  0.000000000     0.181029486  0.181029486 -0.181029486

  length of vectors
     3.906030989  3.906030989  3.906030989     0.313552267  0.313552267  0.313552267


 
 k-points in units of 2pi/SCALE and weight: Automatic kpoint scheme                 
   0.01131434  0.01131434  0.01131434       0.004
  -0.01131434  0.03394303  0.03394303       0.012
  -0.03394303  0.05657171  0.05657171       0.012
  -0.05657171  0.07920040  0.07920040       0.012
   0.10182909 -0.07920040 -0.07920040       0.012
   0.07920040 -0.05657171 -0.05657171       0.012
   0.05657171 -0.03394303 -0.03394303       0.012
   0.03394303 -0.01131434 -0.01131434       0.012
   0.01131434  0.01131434  0.05657171       0.012
  -0.01131434  0.03394303  0.07920040       0.023
  -0.03394303  0.05657171  0.10182909       0.023
   0.12445777 -0.10182909 -0.05657171       0.023
   0.10182909 -0.07920040 -0.03394303       0.023
   0.07920040 -0.05657171 -0.01131434       0.023
   0.05657171 -0.03394303  0.01131434       0.023
   0.01131434  0.01131434  0.10182909       0.012
  -0.01131434  0.03394303  0.12445777       0.023
   0.14708646 -0.12445777 -0.03394303       0.023
   0.12445777 -0.10182909 -0.01131434       0.023
   0.10182909 -0.07920040  0.01131434       0.023
   0.07920040 -0.05657171  0.03394303       0.023
   0.01131434  0.01131434  0.14708646       0.012
   0.16971514 -0.14708646 -0.01131434       0.023
   0.14708646 -0.12445777  0.01131434       0.023
   0.12445777 -0.10182909  0.03394303       0.023
   0.10182909 -0.07920040  0.05657171       0.023
   0.01131434  0.01131434 -0.16971514       0.012
  -0.01131434  0.03394303 -0.14708646       0.023
  -0.03394303  0.05657171 -0.12445777       0.023
   0.01131434  0.01131434 -0.12445777       0.012
  -0.01131434  0.03394303 -0.10182909       0.023
   0.01131434  0.01131434 -0.07920040       0.012
   0.03394303  0.03394303  0.03394303       0.004
   0.01131434  0.05657171  0.05657171       0.012
  -0.01131434  0.07920040  0.07920040       0.012
   0.14708646 -0.07920040 -0.07920040       0.012
   0.12445777 -0.05657171 -0.05657171       0.012
   0.10182909 -0.03394303 -0.03394303       0.012
   0.03394303  0.03394303  0.07920040       0.012
   0.01131434  0.05657171  0.10182909       0.023
   0.16971514 -0.10182909 -0.05657171       0.023
   0.14708646 -0.07920040 -0.03394303       0.023
   0.12445777 -0.05657171 -0.01131434       0.023
   0.03394303  0.03394303  0.12445777       0.012
   0.19234383 -0.12445777 -0.03394303       0.023
   0.16971514 -0.10182909 -0.01131434       0.023
   0.14708646 -0.07920040  0.01131434       0.023
   0.03394303  0.03394303 -0.19234383       0.012
   0.01131434  0.05657171 -0.16971514       0.023
   0.03394303  0.03394303 -0.14708646       0.012
   0.05657171  0.05657171  0.05657171       0.004
   0.03394303  0.07920040  0.07920040       0.012
   0.19234383 -0.07920040 -0.07920040       0.012
   0.16971514 -0.05657171 -0.05657171       0.012
   0.05657171  0.05657171  0.10182909       0.012
   0.21497251 -0.10182909 -0.05657171       0.023
   0.19234383 -0.07920040 -0.03394303       0.023
   0.05657171  0.05657171 -0.21497251       0.012
   0.07920040  0.07920040  0.07920040       0.004
   0.23760120 -0.07920040 -0.07920040       0.012
 
 k-points in reciprocal lattice and weights: Automatic kpoint scheme                 
   0.06250000  0.06250000  0.06250000       0.004
   0.18750000  0.06250000  0.06250000       0.012
   0.31250000  0.06250000  0.06250000       0.012
   0.43750000  0.06250000  0.06250000       0.012
  -0.43750000  0.06250000  0.06250000       0.012
  -0.31250000  0.06250000  0.06250000       0.012
  -0.18750000  0.06250000  0.06250000       0.012
  -0.06250000  0.06250000  0.06250000       0.012
   0.18750000  0.18750000  0.06250000       0.012
   0.31250000  0.18750000  0.06250000       0.023
   0.43750000  0.18750000  0.06250000       0.023
  -0.43750000  0.18750000  0.06250000       0.023
  -0.31250000  0.18750000  0.06250000       0.023
  -0.18750000  0.18750000  0.06250000       0.023
  -0.06250000  0.18750000  0.06250000       0.023
   0.31250000  0.31250000  0.06250000       0.012
   0.43750000  0.31250000  0.06250000       0.023
  -0.43750000  0.31250000  0.06250000       0.023
  -0.31250000  0.31250000  0.06250000       0.023
  -0.18750000  0.31250000  0.06250000       0.023
  -0.06250000  0.31250000  0.06250000       0.023
   0.43750000  0.43750000  0.06250000       0.012
  -0.43750000  0.43750000  0.06250000       0.023
  -0.31250000  0.43750000  0.06250000       0.023
  -0.18750000  0.43750000  0.06250000       0.023
  -0.06250000  0.43750000  0.06250000       0.023
  -0.43750000 -0.43750000  0.06250000       0.012
  -0.31250000 -0.43750000  0.06250000       0.023
  -0.18750000 -0.43750000  0.06250000       0.023
  -0.31250000 -0.31250000  0.06250000       0.012
  -0.18750000 -0.31250000  0.06250000       0.023
  -0.18750000 -0.18750000  0.06250000       0.012
   0.18750000  0.18750000  0.18750000       0.004
   0.31250000  0.18750000  0.18750000       0.012
   0.43750000  0.18750000  0.18750000       0.012
  -0.43750000  0.18750000  0.18750000       0.012
  -0.31250000  0.18750000  0.18750000       0.012
  -0.18750000  0.18750000  0.18750000       0.012
   0.31250000  0.31250000  0.18750000       0.012
   0.43750000  0.31250000  0.18750000       0.023
  -0.43750000  0.31250000  0.18750000       0.023
  -0.31250000  0.31250000  0.18750000       0.023
  -0.18750000  0.31250000  0.18750000       0.023
   0.43750000  0.43750000  0.18750000       0.012
  -0.43750000  0.43750000  0.18750000       0.023
  -0.31250000  0.43750000  0.18750000       0.023
  -0.18750000  0.43750000  0.18750000       0.023
  -0.43750000 -0.43750000  0.18750000       0.012
  -0.31250000 -0.43750000  0.18750000       0.023
  -0.31250000 -0.31250000  0.18750000       0.012
   0.31250000  0.31250000  0.31250000       0.004
   0.43750000  0.31250000  0.31250000       0.012
  -0.43750000  0.31250000  0.31250000       0.012
  -0.31250000  0.31250000  0.31250000       0.012
   0.43750000  0.43750000  0.31250000       0.012
  -0.43750000  0.43750000  0.31250000       0.023
  -0.31250000  0.43750000  0.31250000       0.023
  -0.43750000 -0.43750000  0.31250000       0.012
   0.43750000  0.43750000  0.43750000       0.004
  -0.43750000  0.43750000  0.43750000       0.012
 
 position of ions in fractional coordinates (direct lattice) 
   0.50000000  0.50000000  0.50000000
   0.75000000  0.75000000  0.75000000
 
 position of ions in cartesian coordinates  (Angst):
   2.76198100  2.76198100  2.76198100
   4.14297150  4.14297150  4.14297150
 


--------------------------------------------------------------------------------------------------------


 k-point  1 :   0.0625 0.0625 0.0625  plane waves:     615
 k-point  2 :   0.1875 0.0625 0.0625  plane waves:     617
 k-point  3 :   0.3125 0.0625 0.0625  plane waves:     623
 k-point  4 :   0.4375 0.0625 0.0625  plane waves:     617
 k-point  5 :  -0.4375 0.0625 0.0625  plane waves:     619
 k-point  6 :  -0.3125 0.0625 0.0625  plane waves:     616
 k-point  7 :  -0.1875 0.0625 0.0625  plane waves:     620
 k-point  8 :  -0.0625 0.0625 0.0625  plane waves:     619
 k-point  9 :   0.1875 0.1875 0.0625  plane waves:     617
 k-point 10 :   0.3125 0.1875 0.0625  plane waves:     621
 k-point 11 :   0.4375 0.1875 0.0625  plane waves:     624
 k-point 12 :  -0.4375 0.1875 0.0625  plane waves:     623
 k-point 13 :  -0.3125 0.1875 0.0625  plane waves:     625
 k-point 14 :  -0.1875 0.1875 0.0625  plane waves:     623
 k-point 15 :  -0.0625 0.1875 0.0625  plane waves:     620
 k-point 16 :   0.3125 0.3125 0.0625  plane waves:     627
 k-point 17 :   0.4375 0.3125 0.0625  plane waves:     625
 k-point 18 :  -0.4375 0.3125 0.0625  plane waves:     631
 k-point 19 :  -0.3125 0.3125 0.0625  plane waves:     631
 k-point 20 :  -0.1875 0.3125 0.0625  plane waves:     624
 k-point 21 :  -0.0625 0.3125 0.0625  plane waves:     622
 k-point 22 :   0.4375 0.4375 0.0625  plane waves:     628
 k-point 23 :  -0.4375 0.4375 0.0625  plane waves:     629
 k-point 24 :  -0.3125 0.4375 0.0625  plane waves:     630
 k-point 25 :  -0.1875 0.4375 0.0625  plane waves:     628
 k-point 26 :  -0.0625 0.4375 0.0625  plane waves:     620
 k-point 27 :  -0.4375-0.4375 0.0625  plane waves:     632
 k-point 28 :  -0.3125-0.4375 0.0625  plane waves:     632
 k-point 29 :  -0.1875-0.4375 0.0625  plane waves:     628
 k-point 30 :  -0.3125-0.3125 0.0625  plane waves:     630
 k-point 31 :  -0.1875-0.3125 0.0625  plane waves:     623
 k-point 32 :  -0.1875-0.1875 0.0625  plane waves:     620
 k-point 33 :   0.1875 0.1875 0.1875  plane waves:     628
 k-point 34 :   0.3125 0.1875 0.1875  plane waves:     623
 k-point 35 :   0.4375 0.1875 0.1875  plane waves:     622
 k-point 36 :  -0.4375 0.1875 0.1875  plane waves:     628
 k-point 37 :  -0.3125 0.1875 0.1875  plane waves:     628
 k-point 38 :  -0.1875 0.1875 0.1875  plane waves:     621
 k-point 39 :   0.3125 0.3125 0.1875  plane waves:     618
 k-point 40 :   0.4375 0.3125 0.1875  plane waves:     626
 k-point 41 :  -0.4375 0.3125 0.1875  plane waves:     635
 k-point 42 :  -0.3125 0.3125 0.1875  plane waves:     631
 k-point 43 :  -0.1875 0.3125 0.1875  plane waves:     634
 k-point 44 :   0.4375 0.4375 0.1875  plane waves:     626
 k-point 45 :  -0.4375 0.4375 0.1875  plane waves:     633
 k-point 46 :  -0.3125 0.4375 0.1875  plane waves:     630
 k-point 47 :  -0.1875 0.4375 0.1875  plane waves:     635
 k-point 48 :  -0.4375-0.4375 0.1875  plane waves:     632
 k-point 49 :  -0.3125-0.4375 0.1875  plane waves:     633
 k-point 50 :  -0.3125-0.3125 0.1875  plane waves:     631
 k-point 51 :   0.3125 0.3125 0.3125  plane waves:     613
 k-point 52 :   0.4375 0.3125 0.3125  plane waves:     622
 k-point 53 :  -0.4375 0.3125 0.3125  plane waves:     625
 k-point 54 :  -0.3125 0.3125 0.3125  plane waves:     634
 k-point 55 :   0.4375 0.4375 0.3125  plane waves:     620
 k-point 56 :  -0.4375 0.4375 0.3125  plane waves:     630
 k-point 57 :  -0.3125 0.4375 0.3125  plane waves:     635
 k-point 58 :  -0.4375-0.4375 0.3125  plane waves:     633
 k-point 59 :   0.4375 0.4375 0.4375  plane waves:     622
 k-point 60 :  -0.4375 0.4375 0.4375  plane waves:     623

 maximum and minimum number of plane-waves per node :       635      613

 maximum number of plane-waves:       635
 maximum index in each direction: 
   IXMAX=    6   IYMAX=    6   IZMAX=    5
   IXMIN=   -6   IYMIN=   -6   IZMIN=   -6


 serial   3D FFT for wavefunctions
 parallel 3D FFT for charge:
    minimum data exchange during FFTs selected (reduces bandwidth)


 total amount of memory used by VASP MPI-rank0    33921. kBytes
=======================================================================

   base      :      30000. kBytes
   nonl-proj :       2478. kBytes
   fftplans  :        247. kBytes
   grid      :        561. kBytes
   one-center:          6. kBytes
   wavefun   :        629. kBytes
 
     INWAV:  cpu time    0.0000: real time    0.0003
 Broyden mixing: mesh for mixing (old mesh)
   NGX = 11   NGY = 11   NGZ = 11
  (NGX  = 36   NGY  = 36   NGZ  = 36)
  gives a total of   1331 points

 initial charge density was supplied:
 charge density of overlapping atoms calculated
 number of electron       8.0000000 magnetization 
 keeping initial charge density in first step


--------------------------------------------------------------------------------------------------------


 Maximum index for augmentation-charges          650 (set IRDMAX)


--------------------------------------------------------------------------------------------------------


 First call to EWALD:  gamma=   0.509
 Maximum number of real-space cells 3x 3x 3
 Maximum number of reciprocal cells 3x 3x 3

    FEWALD:  cpu time    0.0080: real time    0.0074


--------------------------------------- Iteration      1(   1)  ---------------------------------------


    POTLOK:  cpu time    0.0360: real time    0.0440
    SETDIJ:  cpu time    0.0120: real time    0.0092
     EDDAV:  cpu time    0.7400: real time    0.7497
       DOS:  cpu time    0.0000: real time    0.0035
    --------------------------------------------
      LOOP:  cpu time    0.7880: real time    0.8075

 eigenvalue-minimisations  :   968
 total energy-change (2. order) : 0.3961324E+01  (-0.2680075E+03)
 number of electron       8.0000000 magnetization 
 augmentation part        8.0000000 magnetization 

 Free energy of the ion-electron system (eV)
  ---------------------------------------------------
  alpha Z        PSCENC =         3.19537449
  Ewald energy   TEWEN  =      -224.67568393
  -Hartree energ DENC   =       -11.78707465
  -exchange      EXHF   =         0.00000000
  -V(xc)+E(xc)   XCENC  =       -18.80108412
  PAW double counting   =        65.95520812      -30.76852678
  entropy T*S    EENTRO =        -0.01057231
  eigenvalues    EBANDS =        14.72242947
  atomic energy  EATOM  =       206.13125414
  Solvation  Ediel_sol  =         0.00000000
  ---------------------------------------------------
  free energy    TOTEN  =         3.96132443 eV

  energy without entropy =        3.97189673  energy(sigma->0) =        3.96661058


--------------------------------------------------------------------------------------------------------




--------------------------------------- Iteration      1(   2)  ---------------------------------------


     EDDAV:  cpu time    1.1360: real time    1.1438
       DOS:  cpu time    0.0040: real time    0.0058
    --------------------------------------------
      LOOP:  cpu time    1.1400: real time    1.1494

 eigenvalue-minimisations  :  1512
 total energy-change (2. order) :-0.1477361E+02  (-0.1408219E+02)
 number of electron       8.0000000 magnetization 
 augmentation part        8.0000000 magnetization 

 Free energy of the ion-electron system (eV)
  ---------------------------------------------------
  alpha Z        PSCENC =         3.19537449
  Ewald energy   TEWEN  =      -224.67568393
  -Hartree energ DENC   =       -11.78707465
  -exchange      EXHF   =         0.00000000
  -V(xc)+E(xc)   XCENC  =       -18.80108412
  PAW double counting   =        65.95520812      -30.76852678
  entropy T*S    EENTRO =        -0.00000104
  eigenvalues    EBANDS =        -0.06175004
  atomic energy  EATOM  =       206.13125414
  Solvation  Ediel_sol  =         0.00000000
  ---------------------------------------------------
  free energy    TOTEN  =       -10.81228381 eV

  energy without entropy =      -10.81228277  energy(sigma->0) =      -10.81228329


--------------------------------------------------------------------------------------------------------




--------------------------------------- Iteration      1(   3)  ---------------------------------------


     EDDAV:  cpu time    0.9040: real time    0.9303
       DOS:  cpu time    0.0040: real time    0.0051
    --------------------------------------------
      LOOP:  cpu time    0.9080: real time    0.9355

 eigenvalue-minimisations  :  1192
 total energy-change (2. order) :-0.1764162E+00  (-0.1764162E+00)
 number of electron       8.0000000 magnetization 
 augmentation part        8.0000000 magnetization 

 Free energy of the ion-electron system (eV)
  ---------------------------------------------------
  alpha Z        PSCENC =         3.19537449
  Ewald energy   TEWEN  =      -224.67568393
  -Hartree energ DENC   =       -11.78707465
  -exchange      EXHF   =         0.00000000
  -V(xc)+E(xc)   XCENC  =       -18.80108412
  PAW double counting   =        65.95520812      -30.76852678
  entropy T*S    EENTRO =        -0.00000062
  eigenvalues    EBANDS =        -0.23816668
  atomic energy  EATOM  =       206.13125414
  Solvation  Ediel_sol  =         0.00000000
  ---------------------------------------------------
  free energy    TOTEN  =       -10.98870003 eV

  energy without entropy =      -10.98869941  energy(sigma->0) =      -10.98869972


--------------------------------------------------------------------------------------------------------




--------------------------------------- Iteration      1(   4)  ---------------------------------------


     EDDAV:  cpu time    1.2000: real time    1.2299
       DOS:  cpu time    0.0040: real time    0.0032
    --------------------------------------------
      LOOP:  cpu time    1.2040: real time    1.2329

 eigenvalue-minimisations  :  1592
 total energy-change (2. order) :-0.7914458E-03  (-0.7914459E-03)
 number of electron       8.0000000 magnetization 
 augmentation part        8.0000000 magnetization 

 Free energy of the ion-electron system (eV)
  ---------------------------------------------------
  alpha Z        PSCENC =         3.19537449
  Ewald energy   TEWEN  =      -224.67568393
  -Hartree energ DENC   =       -11.78707465
  -exchange      EXHF   =         0.00000000
  -V(xc)+E(xc)   XCENC  =       -18.80108412
  PAW double counting   =        65.95520812      -30.76852678
  entropy T*S    EENTRO =        -0.00000061
  eigenvalues    EBANDS =        -0.23895813
  atomic energy  EATOM  =       206.13125414
  Solvation  Ediel_sol  =         0.00000000
  ---------------------------------------------------
  free energy    TOTEN  =       -10.98949147 eV

  energy without entropy =      -10.98949086  energy(sigma->0) =      -10.98949117


--------------------------------------------------------------------------------------------------------




--------------------------------------- Iteration      1(   5)  ---------------------------------------


     EDDAV:  cpu time    0.8960: real time    0.9049
       DOS:  cpu time    0.0040: real time    0.0033
    CHARGE:  cpu time    0.0600: real time    0.0613
    MIXING:  cpu time    0.0000: real time    0.0020
    --------------------------------------------
      LOOP:  cpu time    0.9600: real time    0.9723

 eigenvalue-minimisations  :  1184
 total energy-change (2. order) :-0.5898576E-06  (-0.5894015E-06)
 number of electron       7.9999993 magnetization 
 augmentation part       -0.4683193 magnetization 

 Broyden mixing:
  rms(total) = 0.28826E+00    rms(broyden)= 0.28825E+00
  rms(prec ) = 0.82435E+00
  weight for this iteration     100.00

 Free energy of the ion-electron system (eV)
  ---------------------------------------------------
  alpha Z        PSCENC =         3.19537449
  Ewald energy   TEWEN  =      -224.67568393
  -Hartree energ DENC   =       -11.78707465
  -exchange      EXHF   =         0.00000000
  -V(xc)+E(xc)   XCENC  =       -18.80108412
  PAW double counting   =        65.95520812      -30.76852678
  entropy T*S    EENTRO =        -0.00000061
  eigenvalues    EBANDS =        -0.23895872
  atomic energy  EATOM  =       206.13125414
  Solvation  Ediel_sol  =         0.00000000
  ---------------------------------------------------
  free energy    TOTEN  =       -10.98949206 eV

  energy without entropy =      -10.98949145  energy(sigma->0) =      -10.98949176


--------------------------------------------------------------------------------------------------------




--------------------------------------- Iteration      1(   6)  ---------------------------------------


    POTLOK:  cpu time    0.0280: real time    0.0327
    SETDIJ:  cpu time    0.0080: real time    0.0087
     EDDAV:  cpu time    0.8480: real time    0.8475
       DOS:  cpu time    0.0040: real time    0.0032
    CHARGE:  cpu time    0.0600: real time    0.0611
    MIXING:  cpu time    0.0000: real time    0.0020
    --------------------------------------------
      LOOP:  cpu time    0.9520: real time    0.9545

 eigenvalue-minimisations  :  1128
 total energy-change (2. order) : 0.1038810E+00  (-0.6615523E-02)
 number of electron       7.9999993 magnetization 
 augmentation part       -0.4631788 magnetization 

 Broyden mixing:
  rms(total) = 0.17208E+00    rms(broyden)= 0.17208E+00
  rms(prec ) = 0.48968E+00
  weight for this iteration     100.00

 eigenvalues of (default mixing * dielectric matrix)
  average eigenvalue GAMMA=   2.4613
  2.4613

 Free energy of the ion-electron system (eV)
  ---------------------------------------------------
  alpha Z        PSCENC =         3.19537449
  Ewald energy   TEWEN  =      -224.67568393
  -Hartree energ DENC   =       -13.19974007
  -exchange      EXHF   =         0.00000000
  -V(xc)+E(xc)   XCENC  =       -18.57885030
  PAW double counting   =        69.28941935      -34.19428928
  entropy T*S    EENTRO =        -0.00000350
  eigenvalues    EBANDS =         1.14690800
  atomic energy  EATOM  =       206.13125414
  Solvation  Ediel_sol  =         0.00000000
  ---------------------------------------------------
  free energy    TOTEN  =       -10.88561110 eV

  energy without entropy =      -10.88560760  energy(sigma->0) =      -10.88560935


--------------------------------------------------------------------------------------------------------




--------------------------------------- Iteration      1(   7)  ---------------------------------------


    POTLOK:  cpu time    0.0280: real time    0.0351
    SETDIJ:  cpu time    0.0080: real time    0.0090
     EDDAV:  cpu time    0.9120: real time    0.9100
       DOS:  cpu time    0.0040: real time    0.0034
    CHARGE:  cpu time    0.0560: real time    0.0597
    MIXING:  cpu time    0.0040: real time    0.0017
    --------------------------------------------
      LOOP:  cpu time    1.0080: real time    1.0190

 eigenvalue-minimisations  :  1216
 total energy-change (2. order) : 0.4925801E-01  (-0.1281896E-01)
 number of electron       7.9999993 magnetization 
 augmentation part       -0.4569926 magnetization 

 Broyden mixing:
  rms(total) = 0.14295E-01    rms(broyden)= 0.14295E-01
  rms(prec ) = 0.36990E-01
  weight for this iteration     100.00

 eigenvalues of (default mixing * dielectric matrix)
  average eigenvalue GAMMA=   2.4728
  2.4728  2.4728

 Free energy of the ion-electron system (eV)
  ---------------------------------------------------
  alpha Z        PSCENC =         3.19537449
  Ewald energy   TEWEN  =      -224.67568393
  -Hartree energ DENC   =       -15.51956174
  -exchange      EXHF   =         0.00000000
  -V(xc)+E(xc)   XCENC  =       -18.20656226
  PAW double counting   =        73.65480817      -38.67597356
  entropy T*S    EENTRO =        -0.00002588
  eigenvalues    EBANDS =         3.26001746
  atomic energy  EATOM  =       206.13125414
  Solvation  Ediel_sol  =         0.00000000
  ---------------------------------------------------
  free energy    TOTEN  =       -10.83635309 eV

  energy without entropy =      -10.83632721  energy(sigma->0) =      -10.83634015


--------------------------------------------------------------------------------------------------------




--------------------------------------- Iteration      1(   8)  ---------------------------------------


    POTLOK:  cpu time    0.0280: real time    0.0388
    SETDIJ:  cpu time    0.0080: real time    0.0087
     EDDAV:  cpu time    0.8520: real time    0.8520
       DOS:  cpu time    0.0040: real time    0.0035
    CHARGE:  cpu time    0.0560: real time    0.0596
    MIXING:  cpu time    0.0040: real time    0.0021
    --------------------------------------------
      LOOP:  cpu time    0.9520: real time    0.9646

 eigenvalue-minimisations  :  1136
 total energy-change (2. order) :-0.1329333E-02  (-0.3784578E-03)
 number of electron       7.9999993 magnetization 
 augmentation part       -0.4579286 magnetization 

 Broyden mixing:
  rms(total) = 0.25266E-02    rms(broyden)= 0.25257E-02
  rms(prec ) = 0.83555E-02
  weight for this iteration     100.00

 eigenvalues of (default mixing * dielectric matrix)
  average eigenvalue GAMMA=   2.1276
  1.3299  2.8140  2.2389

 Free energy of the ion-electron system (eV)
  ---------------------------------------------------
  alpha Z        PSCENC =         3.19537449
  Ewald energy   TEWEN  =      -224.67568393
  -Hartree energ DENC   =       -15.48320490
  -exchange      EXHF   =         0.00000000
  -V(xc)+E(xc)   XCENC  =       -18.20142995
  PAW double counting   =        72.78754947      -37.78172289
  entropy T*S    EENTRO =        -0.00002004
  eigenvalues    EBANDS =         3.19020118
  atomic energy  EATOM  =       206.13125414
  Solvation  Ediel_sol  =         0.00000000
  ---------------------------------------------------
  free energy    TOTEN  =       -10.83768243 eV

  energy without entropy =      -10.83766239  energy(sigma->0) =      -10.83767241


--------------------------------------------------------------------------------------------------------




--------------------------------------- Iteration      1(   9)  ---------------------------------------


    POTLOK:  cpu time    0.0280: real time    0.0413
    SETDIJ:  cpu time    0.0080: real time    0.0087
     EDDAV:  cpu time    0.6400: real time    0.6407
       DOS:  cpu time    0.0040: real time    0.0037
    --------------------------------------------
      LOOP:  cpu time    0.6800: real time    0.6943

 eigenvalue-minimisations  :   776
 total energy-change (2. order) :-0.1055348E-03  (-0.1074247E-04)
 number of electron       7.9999993 magnetization 
 augmentation part       -0.4579286 magnetization 

 Free energy of the ion-electron system (eV)
  ---------------------------------------------------
  alpha Z        PSCENC =         3.19537449
  Ewald energy   TEWEN  =      -224.67568393
  -Hartree energ DENC   =       -15.52319188
  -exchange      EXHF   =         0.00000000
  -V(xc)+E(xc)   XCENC  =       -18.19491124
  PAW double counting   =        72.76464606      -37.75848498
  entropy T*S    EENTRO =        -0.00001979
  eigenvalues    EBANDS =         3.22322916
  atomic energy  EATOM  =       206.13125414
  Solvation  Ediel_sol  =         0.00000000
  ---------------------------------------------------
  free energy    TOTEN  =       -10.83778796 eV

  energy without entropy =      -10.83776818  energy(sigma->0) =      -10.83777807


--------------------------------------------------------------------------------------------------------




 average (electrostatic) potential at core
  the test charge radii are     0.9892
  (the norm of the test charge is              1.0000)
       1 -83.8179       2 -83.8179
 
 
 
 E-fermi :   5.6699     XC(G=0):  -9.2134     alpha+bet :-11.3833


 k-point     1 :       0.0625    0.0625    0.0625
  band No.  band energies     occupation 
      1      -6.2455      2.00000
      2       4.7844      2.00000
      3       5.2405      1.99761
      4       5.2405      1.99761
      5       7.8525      0.00000
      6       7.9825      0.00000
      7       7.9825      0.00000
      8       8.5783      0.00000

 k-point     2 :       0.1875    0.0625    0.0625
  band No.  band energies     occupation 
      1      -5.9861      2.00000
      2       3.2951      2.00000
      3       4.4644      2.00000
      4       5.1237      1.99989
      5       7.8693      0.00000
      6       8.2214      0.00000
      7       8.4855      0.00000
      8      10.1010      0.00000

 k-point     3 :       0.3125    0.0625    0.0625
  band No.  band energies     occupation 
      1      -5.3612      2.00000
      2       1.1326      2.00000
      3       3.9858      2.00000
      4       4.6758      2.00000
      5       7.4165      0.00000
      6       8.7126      0.00000
      7       8.9884      0.00000
      8      11.7101      0.00000

 k-point     4 :       0.4375    0.0625    0.0625
  band No.  band energies     occupation 
      1      -4.4940      2.00000
      2      -0.6915      2.00000
      3       3.7709      2.00000
      4       4.2816      2.00000
      5       7.1037      0.00000
      6       8.7956      0.00000
      7       8.8093      0.00000
      8      13.0105      0.00000

 k-point     5 :      -0.4375    0.0625    0.0625
  band No.  band energies     occupation 
      1      -4.0684      2.00000
      2      -1.3623      2.00000
      3       3.8157      2.00000
      4       4.0717      2.00000
      5       7.0254      0.00000
      6       8.6128      0.00000
      7       8.8747      0.00000
      8      13.1119      0.00000

 k-point     6 :      -0.3125    0.0625    0.0625
  band No.  band energies     occupation 
      1      -4.7900      2.00000
      2      -0.1536      2.00000
      3       4.0928      2.00000
      4       4.0946      2.00000
      5       7.1936      0.00000
      6       8.6069      0.00000
      7       9.1139      0.00000
      8      12.1501      0.00000

 k-point     7 :      -0.1875    0.0625    0.0625
  band No.  band energies     occupation 
      1      -5.6060      2.00000
      2       1.8410      2.00000
      3       4.3649      2.00000
      4       4.5445      2.00000
      5       7.5583      0.00000
      6       8.4352      0.00000
      7       9.1443      0.00000
      8      10.9429      0.00000

 k-point     8 :      -0.0625    0.0625    0.0625
  band No.  band energies     occupation 
      1      -6.1151      2.00000
      2       4.0323      2.00000
      3       4.8320      2.00000
      4       4.9762      2.00000
      5       7.7012      0.00000
      6       8.1934      0.00000
      7       8.5402      0.00000
      8       9.3514      0.00000

 k-point     9 :       0.1875    0.1875    0.0625
  band No.  band energies     occupation 
      1      -5.8556      2.00000
      2       3.1377      2.00000
      3       4.2947      2.00000
      4       4.3648      2.00000
      5       7.2967      0.00000
      6       8.9158      0.00000
      7       9.3714      0.00000
      8       9.8299      0.00000

 k-point    10 :       0.3125    0.1875    0.0625
  band No.  band energies     occupation 
      1      -5.3485      2.00000
      2       1.6718      2.00000
      3       3.3556      2.00000
      4       4.1158      2.00000
      5       7.4589      0.00000
      6       9.0199      0.00000
      7       9.7679      0.00000
      8      10.1490      0.00000

 k-point    11 :       0.4375    0.1875    0.0625
  band No.  band energies     occupation 
      1      -4.5342      2.00000
      2      -0.1191      2.00000
      3       2.8625      2.00000
      4       3.7235      2.00000
      5       7.6359      0.00000
      6       9.0096      0.00000
      7      10.1771      0.00000
      8      10.4833      0.00000

 k-point    12 :      -0.4375    0.1875    0.0625
  band No.  band energies     occupation 
      1      -3.8078      2.00000
      2      -1.2776      2.00000
      3       2.5785      2.00000
      4       3.6351      2.00000
      5       7.6869      0.00000
      6       8.7460      0.00000
      7      10.0420      0.00000
      8      12.4296      0.00000

 k-point    13 :      -0.3125    0.1875    0.0625
  band No.  band energies     occupation 
      1      -4.2434      2.00000
      2      -0.6180      2.00000
      3       2.5136      2.00000
      4       3.9076      2.00000
      5       7.9347      0.00000
      6       8.6816      0.00000
      7       9.9821      0.00000
      8      11.7059      0.00000

 k-point    14 :      -0.1875    0.1875    0.0625
  band No.  band energies     occupation 
      1      -5.1093      2.00000
      2       1.0445      2.00000
      3       2.8194      2.00000
      4       4.3950      2.00000
      5       8.2477      0.00000
      6       8.5713      0.00000
      7       9.8547      0.00000
      8      10.3511      0.00000

 k-point    15 :      -0.0625    0.1875    0.0625
  band No.  band energies     occupation 
      1      -5.7296      2.00000
      2       2.4893      2.00000
      3       3.9071      2.00000
      4       4.7539      2.00000
      5       7.8309      0.00000
      6       8.4133      0.00000
      7       9.1906      0.00000
      8      10.3676      0.00000

 k-point    16 :       0.3125    0.3125    0.0625
  band No.  band energies     occupation 
      1      -4.9607      2.00000
      2       1.1588      2.00000
      3       3.2193      2.00000
      4       3.3369      2.00000
      5       6.5146      0.00000
      6       8.1487      0.00000
      7      11.1667      0.00000
      8      11.3218      0.00000

 k-point    17 :       0.4375    0.3125    0.0625
  band No.  band energies     occupation 
      1      -4.2347      2.00000
      2      -0.0427      2.00000
      3       2.4625      2.00000
      4       3.0036      2.00000
      5       6.8229      0.00000
      6       7.9913      0.00000
      7      11.1325      0.00000
      8      12.2850      0.00000

 k-point    18 :      -0.4375    0.3125    0.0625
  band No.  band energies     occupation 
      1      -3.3733      2.00000
      2      -1.1935      2.00000
      3       1.6526      2.00000
      4       2.9726      2.00000
      5       7.0565      0.00000
      6       9.6067      0.00000
      7      10.7183      0.00000
      8      12.1978      0.00000

 k-point    19 :      -0.3125    0.3125    0.0625
  band No.  band energies     occupation 
      1      -3.4440      2.00000
      2      -1.1013      2.00000
      3       1.3163      2.00000
      4       3.3035      2.00000
      5       7.4406      0.00000
      6      10.3005      0.00000
      7      11.5447      0.00000
      8      11.9028      0.00000

 k-point    20 :      -0.1875    0.3125    0.0625
  band No.  band energies     occupation 
      1      -4.3050      2.00000
      2      -0.1697      2.00000
      3       1.8928      2.00000
      4       3.8658      2.00000
      5       8.0287      0.00000
      6       9.2229      0.00000
      7      10.5939      0.00000
      8      10.9014      0.00000

 k-point    21 :      -0.0625    0.3125    0.0625
  band No.  band energies     occupation 
      1      -5.0006      2.00000
      2       0.4745      2.00000
      3       3.4565      2.00000
      4       4.2982      2.00000
      5       7.6952      0.00000
      6       8.6112      0.00000
      7       9.4512      0.00000
      8      11.1087      0.00000

 k-point    22 :       0.4375    0.4375    0.0625
  band No.  band energies     occupation 
      1      -3.6018      2.00000
      2      -0.8827      2.00000
      3       2.5557      2.00000
      4       2.7617      2.00000
      5       6.1407      0.00087
      6       6.8457      0.00000
      7      13.3984      0.00000
      8      13.4271      0.00000

 k-point    23 :      -0.4375    0.4375    0.0625
  band No.  band energies     occupation 
      1      -2.7241      2.00000
      2      -1.8421      2.00000
      3       2.0237      2.00000
      4       2.5301      2.00000
      5       6.5642      0.00000
      6       7.2714      0.00000
      7      13.1688      0.00000
      8      14.1259      0.00000

 k-point    24 :      -0.3125    0.4375    0.0625
  band No.  band energies     occupation 
      1      -2.8262      2.00000
      2      -1.6758      2.00000
      3       1.3264      2.00000
      4       2.8338      2.00000
      5       6.9156      0.00000
      6       9.4507      0.00000
      7      11.6852      0.00000
      8      12.7847      0.00000

 k-point    25 :      -0.1875    0.4375    0.0625
  band No.  band energies     occupation 
      1      -3.5598      2.00000
      2      -1.2492      2.00000
      3       1.8359      2.00000
      4       3.4128      2.00000
      5       7.5507      0.00000
      6       9.4630      0.00000
      7      10.9596      0.00000
      8      12.1873      0.00000

 k-point    26 :      -0.0625    0.4375    0.0625
  band No.  band energies     occupation 
      1      -4.1463      2.00000
      2      -1.0825      2.00000
      3       3.2801      2.00000
      4       3.9762      2.00000
      5       7.4859      0.00000
      6       8.5474      0.00000
      7       9.2887      0.00000
      8      12.7509      0.00000

 k-point    27 :      -0.4375   -0.4375    0.0625
  band No.  band energies     occupation 
      1      -2.7716      2.00000
      2      -1.8575      2.00000
      3       2.4225      2.00000
      4       2.6442      2.00000
      5       6.1435      0.00081
      6       6.4945      0.00000
      7      14.4470      0.00000
      8      14.4991      0.00000

 k-point    28 :      -0.3125   -0.4375    0.0625
  band No.  band energies     occupation 
      1      -3.5205      2.00000
      2      -0.9452      2.00000
      3       2.1739      2.00000
      4       2.6848      2.00000
      5       6.6448      0.00000
      6       7.5200      0.00000
      7      12.1249      0.00000
      8      13.4080      0.00000

 k-point    29 :      -0.1875   -0.4375    0.0625
  band No.  band energies     occupation 
      1      -3.9797      2.00000
      2      -0.6646      2.00000
      3       2.2176      2.00000
      4       3.2621      2.00000
      5       7.3196      0.00000
      6       9.7843      0.00000
      7       9.9508      0.00000
      8      11.1701      0.00000

 k-point    30 :      -0.3125   -0.3125    0.0625
  band No.  band energies     occupation 
      1      -4.3353      2.00000
      2       0.1317      2.00000
      3       2.8217      2.00000
      4       2.9945      2.00000
      5       6.2630      0.00003
      6       7.4102      0.00000
      7      12.2661      0.00000
      8      12.3612      0.00000

 k-point    31 :      -0.1875   -0.3125    0.0625
  band No.  band energies     occupation 
      1      -4.8477      2.00000
      2       0.8324      2.00000
      3       2.8652      2.00000
      4       3.4921      2.00000
      5       7.1009      0.00000
      6       8.6395      0.00000
      7      10.2143      0.00000
      8      11.1874      0.00000

 k-point    32 :      -0.1875   -0.1875    0.0625
  band No.  band energies     occupation 
      1      -5.4694      2.00000
      2       2.1702      2.00000
      3       3.7426      2.00000
      4       3.7779      2.00000
      5       6.8734      0.00000
      6       8.9467      0.00000
      7      10.1621      0.00000
      8      10.3185      0.00000

 k-point    33 :       0.1875    0.1875    0.1875
  band No.  band energies     occupation 
      1      -5.8589      2.00000
      2       2.5951      2.00000
      3       4.8140      2.00000
      4       4.8140      2.00000
      5       7.4174      0.00000
      6       8.5826      0.00000
      7       8.5826      0.00000
      8      10.7261      0.00000

 k-point    34 :       0.3125    0.1875    0.1875
  band No.  band energies     occupation 
      1      -5.4795      2.00000
      2       1.7601      2.00000
      3       3.3539      2.00000
      4       4.8272      2.00000
      5       8.0700      0.00000
      6       8.7054      0.00000
      7       8.9798      0.00000
      8      10.8891      0.00000

 k-point    35 :       0.4375    0.1875    0.1875
  band No.  band energies     occupation 
      1      -4.7580      2.00000
      2       0.4201      2.00000
      3       2.3093      2.00000
      4       4.3401      2.00000
      5       7.9657      0.00000
      6       9.4444      0.00000
      7       9.6288      0.00000
      8      11.1747      0.00000

 k-point    36 :      -0.4375    0.1875    0.1875
  band No.  band energies     occupation 
      1      -3.8998      2.00000
      2      -1.0098      2.00000
      3       2.1493      2.00000
      4       3.8282      2.00000
      5       7.5047      0.00000
      6       9.5891      0.00000
      7       9.8442      0.00000
      8      13.0055      0.00000

 k-point    37 :      -0.3125    0.1875    0.1875
  band No.  band energies     occupation 
      1      -3.8843      2.00000
      2      -1.0375      2.00000
      3       2.4349      2.00000
      4       3.5224      2.00000
      5       7.2487      0.00000
      6       9.6477      0.00000
      7      10.1819      0.00000
      8      11.1275      0.00000

 k-point    38 :      -0.1875    0.1875    0.1875
  band No.  band energies     occupation 
      1      -4.7410      2.00000
      2       0.4170      2.00000
      3       3.0302      2.00000
      4       3.5013      2.00000
      5       7.1865      0.00000
      6       9.3090      0.00000
      7       9.9388      0.00000
      8      10.5302      0.00000

 k-point    39 :       0.3125    0.3125    0.1875
  band No.  band energies     occupation 
      1      -5.2312      2.00000
      2       1.1168      2.00000
      3       3.8255      2.00000
      4       3.9061      2.00000
      5       7.5484      0.00000
      6       8.8395      0.00000
      7       9.8019      0.00000
      8      10.1999      0.00000

 k-point    40 :       0.4375    0.3125    0.1875
  band No.  band energies     occupation 
      1      -4.6260      2.00000
      2       0.3473      2.00000
      3       2.3644      2.00000
      4       3.7153      2.00000
      5       8.0436      0.00000
      6       9.0222      0.00000
      7       9.5698      0.00000
      8      11.0163      0.00000

 k-point    41 :      -0.4375    0.3125    0.1875
  band No.  band energies     occupation 
      1      -3.7676      2.00000
      2      -0.7288      2.00000
      3       1.6055      2.00000
      4       3.1717      2.00000
      5       8.4864      0.00000
      6       8.9639      0.00000
      7      10.2095      0.00000
      8      12.0860      0.00000

 k-point    42 :      -0.3125    0.3125    0.1875
  band No.  band energies     occupation 
      1      -3.3012      2.00000
      2      -1.3160      2.00000
      3       1.6031      2.00000
      4       2.8723      2.00000
      5       8.0359      0.00000
      6       9.2832      0.00000
      7      10.9738      0.00000
      8      12.2013      0.00000

 k-point    43 :      -0.1875    0.3125    0.1875
  band No.  band energies     occupation 
      1      -4.0402      2.00000
      2      -0.3531      2.00000
      3       2.0155      2.00000
      4       3.0437      2.00000
      5       7.7722      0.00000
      6       8.9717      0.00000
      7       9.7769      0.00000
      8      12.2028      0.00000

 k-point    44 :       0.4375    0.4375    0.1875
  band No.  band energies     occupation 
      1      -4.1455      2.00000
      2      -0.2923      2.00000
      3       2.3336      2.00000
      4       3.1811      2.00000
      5       6.8250      0.00000
      6       8.8072      0.00000
      7      10.9598      0.00000
      8      11.3342      0.00000

 k-point    45 :      -0.4375    0.4375    0.1875
  band No.  band energies     occupation 
      1      -3.3696      2.00000
      2      -1.0803      2.00000
      3       1.7846      2.00000
      4       2.5285      2.00000
      5       7.5780      0.00000
      6       8.5729      0.00000
      7      10.6520      0.00000
      8      13.3704      0.00000

 k-point    46 :      -0.3125    0.4375    0.1875
  band No.  band energies     occupation 
      1      -2.5926      2.00000
      2      -1.8159      2.00000
      3       1.4832      2.00000
      4       2.0481      2.00000
      5       8.6757      0.00000
      6       9.5968      0.00000
      7      10.2050      0.00000
      8      11.2001      0.00000

 k-point    47 :      -0.1875    0.4375    0.1875
  band No.  band energies     occupation 
      1      -3.1748      2.00000
      2      -1.2783      2.00000
      3       1.4710      2.00000
      4       2.5051      2.00000
      5       8.7715      0.00000
      6       9.1781      0.00000
      7       9.9060      0.00000
      8      12.3372      0.00000

 k-point    48 :      -0.4375   -0.4375    0.1875
  band No.  band energies     occupation 
      1      -2.7478      2.00000
      2      -1.7909      2.00000
      3       1.5828      2.00000
      4       2.8493      2.00000
      5       6.4114      0.00000
      6       8.2595      0.00000
      7      13.0971      0.00000
      8      13.2572      0.00000

 k-point    49 :      -0.3125   -0.4375    0.1875
  band No.  band energies     occupation 
      1      -2.6505      2.00000
      2      -1.8242      2.00000
      3       1.6731      2.00000
      4       2.2516      2.00000
      5       7.4786      0.00000
      6       8.3719      0.00000
      7      11.6338      0.00000
      8      12.7182      0.00000

 k-point    50 :      -0.3125   -0.3125    0.1875
  band No.  band energies     occupation 
      1      -3.4633      2.00000
      2      -1.0401      2.00000
      3       1.8357      2.00000
      4       2.9610      2.00000
      5       6.5543      0.00000
      6       8.4411      0.00000
      7      12.0925      0.00000
      8      12.2156      0.00000

 k-point    51 :       0.3125    0.3125    0.3125
  band No.  band energies     occupation 
      1      -5.1284      2.00000
      2       0.4526      2.00000
      3       4.4114      2.00000
      4       4.4114      2.00000
      5       6.9646      0.00000
      6       8.8296      0.00000
      7       8.8296      0.00000
      8      12.7655      0.00000

 k-point    52 :       0.4375    0.3125    0.3125
  band No.  band energies     occupation 
      1      -4.6656      2.00000
      2      -0.1163      2.00000
      3       2.9873      2.00000
      4       4.3253      2.00000
      5       7.6984      0.00000
      6       9.0425      0.00000
      7       9.0951      0.00000
      8      12.1806      0.00000

 k-point    53 :      -0.4375    0.3125    0.3125
  band No.  band energies     occupation 
      1      -3.9016      2.00000
      2      -0.6594      2.00000
      3       1.5276      2.00000
      4       3.7668      2.00000
      5       7.4435      0.00000
      6      10.4416      0.00000
      7      10.5870      0.00000
      8      11.9208      0.00000

 k-point    54 :      -0.3125    0.3125    0.3125
  band No.  band energies     occupation 
      1      -3.1119      2.00000
      2      -1.4257      2.00000
      3       1.2085      2.00000
      4       3.2395      2.00000
      5       6.8595      0.00000
      6      10.6682      0.00000
      7      11.6791      0.00000
      8      11.8855      0.00000

 k-point    55 :       0.4375    0.4375    0.3125
  band No.  band energies     occupation 
      1      -4.3638      2.00000
      2      -0.6546      2.00000
      3       3.3043      2.00000
      4       3.7841      2.00000
      5       7.4524      0.00000
      6       8.7976      0.00000
      7       9.5699      0.00000
      8      11.5545      0.00000

 k-point    56 :      -0.4375    0.4375    0.3125
  band No.  band energies     occupation 
      1      -3.7668      2.00000
      2      -1.0187      2.00000
      3       2.0475      2.00000
      4       3.3299      2.00000
      5       8.2254      0.00000
      6       8.5968      0.00000
      7      11.0302      0.00000
      8      11.3166      0.00000

 k-point    57 :      -0.3125    0.4375    0.3125
  band No.  band energies     occupation 
      1      -2.9775      2.00000
      2      -1.4947      2.00000
      3       1.2976      2.00000
      4       2.6446      2.00000
      5       7.9139      0.00000
      6      10.1126      0.00000
      7      10.8608      0.00000
      8      11.3642      0.00000

 k-point    58 :      -0.4375   -0.4375    0.3125
  band No.  band energies     occupation 
      1      -3.4223      2.00000
      2      -1.2957      2.00000
      3       1.6763      2.00000
      4       3.3359      2.00000
      5       7.0004      0.00000
      6      10.6249      0.00000
      7      10.9227      0.00000
      8      10.9376      0.00000

 k-point    59 :       0.4375    0.4375    0.4375
  band No.  band energies     occupation 
      1      -4.2756      2.00000
      2      -1.1358      2.00000
      3       4.1952      2.00000
      4       4.1952      2.00000
      5       6.7127      0.00000
      6       8.7099      0.00000
      7       8.7099      0.00000
      8      13.0161      0.00000

 k-point    60 :      -0.4375    0.4375    0.4375
  band No.  band energies     occupation 
      1      -3.9390      2.00000
      2      -1.3103      2.00000
      3       2.9999      2.00000
      4       3.9383      2.00000
      5       7.4638      0.00000
      6       8.8103      0.00000
      7       9.2708      0.00000
      8      13.3422      0.00000


--------------------------------------------------------------------------------------------------------


 soft charge-density along one line, spin component           1
         0         1         2         3         4         5         6         7         8         9
 total charge-density along one line
 
 pseudopotential strength for first ion, spin component:           1
 18.471  -0.000  -0.000  -0.000  -0.000   0.000   0.000   0.000
 -0.000   0.006   0.000   0.000   0.000  -0.000  -0.000  -0.000
 -0.000   0.000   4.184  -0.000  -0.000  -0.004   0.000   0.000
 -0.000   0.000  -0.000   4.184  -0.000   0.000  -0.004   0.000
 -0.000   0.000  -0.000  -0.000   4.184   0.000   0.000  -0.004
  0.000  -0.000  -0.004   0.000   0.000   0.005  -0.000  -0.000
  0.000  -0.000   0.000  -0.004   0.000  -0.000   0.005  -0.000
  0.000  -0.000   0.000   0.000  -0.004  -0.000  -0.000   0.005
 total augmentation occupancy for first ion, spin component:           1
  1.502  -0.719   0.000   0.000   0.000  -0.000   0.000   0.000
 -0.719   0.695   0.000  -0.000   0.000   0.000   0.000   0.000
 -0.000  -0.000   0.996  -0.000   0.000  -0.532   0.000   0.000
  0.000  -0.000   0.000   0.996   0.000   0.000  -0.532   0.000
  0.000   0.000   0.000   0.000   0.996   0.000   0.000  -0.532
  0.000   0.000  -0.532   0.000   0.000   0.335   0.000   0.000
  0.000   0.000   0.000  -0.532  -0.000   0.000   0.335  -0.000
  0.000   0.000   0.000  -0.000  -0.532   0.000   0.000   0.335


------------------------ aborting loop because EDIFF is reached ----------------------------------------


    CHARGE:  cpu time    0.0600: real time    0.0602
    FORLOC:  cpu time    0.0040: real time    0.0009
    FORNL :  cpu time    0.0240: real time    0.0240
    STRESS:  cpu time    0.2720: real time    0.2753
    FORCOR:  cpu time    0.0240: real time    0.0208
    FORHAR:  cpu time    0.0040: real time    0.0051
    MIXING:  cpu time    0.0000: real time    0.0014
    OFIELD:  cpu time    0.0000: real time    0.0005

  FORCE on cell =-STRESS in cart. coord.  units (eV):
  Direction    XX          YY          ZZ          XY          YZ          ZX
  --------------------------------------------------------------------------------------
  Alpha Z     3.19537     3.19537     3.19537
  Ewald     -74.89193   -74.89193   -74.89193     0.00000     0.00000    -0.00000
  Hartree     5.17790     5.17790     5.17790     0.00000     0.00000     0.00000
  E(xc)     -25.07518   -25.07518   -25.07518    -0.00000    -0.00000    -0.00000
  Local     -29.96445   -29.96445   -29.96445     0.00004     0.00004     0.00004
  n-local    76.85487    79.40019    74.65941     1.01359    -1.10342     0.04608
  augment   -11.64867   -11.64867   -11.64867    -0.00003    -0.00003    -0.00003
  Kinetic    56.98196    55.31677    54.41063     0.83872    -0.93425     0.04742
  Fock        0.00000     0.00000     0.00000     0.00000     0.00000     0.00000
  -------------------------------------------------------------------------------------
  Total      -0.66567    -0.66567    -0.66567    -0.00000     0.00000     0.00000
  in kB     -25.30907   -25.30907   -25.30907    -0.00000     0.00000     0.00000
  external pressure =      -25.31 kB  Pullay stress =        0.00 kB


 VOLUME and BASIS-vectors are now :
 -----------------------------------------------------------------------------
  energy-cutoff  :      350.00
  volume of cell :       42.14
      direct lattice vectors                 reciprocal lattice vectors
     0.000000000  2.761981000  2.761981000    -0.181029486  0.181029486  0.181029486
     2.761981000  0.000000000  2.761981000     0.181029486 -0.181029486  0.181029486
     2.761981000  2.761981000  0.000000000     0.181029486  0.181029486 -0.181029486

  length of vectors
     3.906030989  3.906030989  3.906030989     0.313552267  0.313552267  0.313552267


 FORCES acting on ions
    electron-ion (+dipol)            ewald-force                    non-local-force                 convergence-correction
 -----------------------------------------------------------------------------------------------
   0.168E-05 0.168E-05 0.173E-05   -.207E-14 -.142E-14 -.221E-14   -.389E-17 -.736E-17 -.112E-16   -.482E-06 -.482E-06 -.482E-06
   -.168E-05 -.168E-05 -.173E-05   0.216E-14 0.106E-14 0.174E-14   0.893E-17 0.546E-17 0.100E-16   0.482E-06 0.482E-06 0.482E-06
 -----------------------------------------------------------------------------------------------
   -.517E-13 -.717E-13 -.679E-13   0.888E-16 -.365E-15 -.473E-15   0.503E-17 -.190E-17 -.115E-17   -.555E-14 -.453E-14 0.827E-15
 
 
 POSITION                                       TOTAL-FORCE (eV/Angst)
 -----------------------------------------------------------------------------------
      2.76198      2.76198      2.76198         0.000000      0.000000      0.000000
      4.14297      4.14297      4.14297        -0.000000     -0.000000     -0.000000
 -----------------------------------------------------------------------------------
    total drift:                               -0.000000     -0.000000     -0.000000


--------------------------------------------------------------------------------------------------------



  FREE ENERGIE OF THE ION-ELECTRON SYSTEM (eV)
  ---------------------------------------------------
  free  energy   TOTEN  =       -10.83778796 eV

  energy  without entropy=      -10.83776818  energy(sigma->0) =      -10.83777807
 


--------------------------------------------------------------------------------------------------------


    POTLOK:  cpu time    0.0400: real time    0.0484


--------------------------------------------------------------------------------------------------------




--------------------------------------------------------------------------------------------------------


  
 reached required accuracy - stopping structural energy minimisation
 writing wavefunctions
     LOOP+:  cpu time   10.2360: real time   11.2242
    4ORBIT:  cpu time    0.0000: real time    0.0000

 total amount of memory used by VASP MPI-rank0    33921. kBytes
=======================================================================

   base      :      30000. kBytes
   nonl-proj :       2478. kBytes
   fftplans  :        247. kBytes
   grid      :        561. kBytes
   one-center:          6. kBytes
   wavefun   :        629. kBytes
 
  
  
 General timing and accounting informations for this job:
 ========================================================
  
                  Total CPU time used (sec):       15.028
                            User time (sec):       12.960
                          System time (sec):        2.068
                         Elapsed time (sec):       18.088
  
                   Maximum memory used (kb):        9680.
                   Average memory used (kb):           0.
  
                          Minor page faults:        38169
                          Major page faults:           19
                 Voluntary context switches:        40343
