   2   2   0   0
  0.2001288E+02  0.3839590E-09  0.3839590E-09  0.3839590E-09  0.5000000E-15
  1.000000000000000E-004
  CAR 
 unknown system                          
     15.87447745     -7.99478883  301      5.94644025      1.00000000
     -7.995  0.0000E+00  0.0000E+00
     -7.915  0.0000E+00  0.0000E+00
     -7.836  0.0000E+00  0.0000E+00
     -7.756  0.0000E+00  0.0000E+00
     -7.677  0.0000E+00  0.0000E+00
     -7.597  0.0000E+00  0.0000E+00
     -7.517  0.0000E+00  0.0000E+00
     -7.438  0.0000E+00  0.0000E+00
     -7.358  0.0000E+00  0.0000E+00
     -7.279  0.0000E+00  0.0000E+00
     -7.199  0.0000E+00  0.0000E+00
     -7.120  0.4651E-16  0.3701E-17
     -7.040  0.3773E-14  0.3039E-15
     -6.960  0.2212E-12  0.1790E-13
     -6.881  0.9495E-11  0.7733E-12
     -6.801  0.2984E-09  0.2451E-10
     -6.722  0.6868E-08  0.5709E-09
     -6.642  0.1158E-06  0.9786E-08
     -6.563  0.1432E-05  0.1237E-06
     -6.483  0.1298E-04  0.1156E-05
     -6.404  0.8632E-04  0.8024E-05
     -6.324  0.4213E-03  0.4154E-04
     -6.244  0.1509E-02  0.1616E-03
     -6.165  0.3972E-02  0.4776E-03
     -6.085  0.7677E-02  0.1088E-02
     -6.006  0.1091E-01  0.1956E-02
     -5.926  0.1145E-01  0.2867E-02
     -5.847  0.9188E-02  0.3598E-02
     -5.767  0.6984E-02  0.4154E-02
     -5.687  0.8689E-02  0.4845E-02
     -5.608  0.1629E-01  0.6141E-02
     -5.528  0.2723E-01  0.8308E-02
     -5.449  0.3447E-01  0.1105E-01
     -5.369  0.3240E-01  0.1363E-01
     -5.290  0.2344E-01  0.1549E-01
     -5.210  0.1608E-01  0.1677E-01
     -5.130  0.1690E-01  0.1812E-01
     -5.051  0.2519E-01  0.2012E-01
     -4.971  0.3351E-01  0.2279E-01
     -4.892  0.3408E-01  0.2550E-01
     -4.812  0.2663E-01  0.2762E-01
     -4.733  0.1885E-01  0.2912E-01
     -4.653  0.1871E-01  0.3061E-01
     -4.574  0.2764E-01  0.3281E-01
     -4.494  0.3949E-01  0.3595E-01
     -4.414  0.4515E-01  0.3954E-01
     -4.335  0.4132E-01  0.4283E-01
     -4.255  0.3556E-01  0.4566E-01
     -4.176  0.3985E-01  0.4883E-01
     -4.096  0.5753E-01  0.5341E-01
     -4.017  0.7810E-01  0.5962E-01
     -3.937  0.8705E-01  0.6655E-01
     -3.857  0.7943E-01  0.7287E-01
     -3.778  0.6076E-01  0.7770E-01
     -3.698  0.3947E-01  0.8084E-01
     -3.619  0.2290E-01  0.8266E-01
     -3.539  0.1621E-01  0.8395E-01
     -3.460  0.2018E-01  0.8556E-01
     -3.380  0.2961E-01  0.8791E-01
     -3.300  0.3596E-01  0.9077E-01
     -3.221  0.3514E-01  0.9357E-01
     -3.141  0.3273E-01  0.9617E-01
     -3.062  0.3828E-01  0.9922E-01
     -2.982  0.5497E-01  0.1036E+00
     -2.903  0.7613E-01  0.1097E+00
     -2.823  0.8961E-01  0.1168E+00
     -2.744  0.8539E-01  0.1236E+00
     -2.664  0.6386E-01  0.1287E+00
     -2.584  0.3656E-01  0.1316E+00
     -2.505  0.1575E-01  0.1328E+00
     -2.425  0.5051E-02  0.1332E+00
     -2.346  0.1198E-02  0.1333E+00
     -2.266  0.2093E-03  0.1333E+00
     -2.187  0.2690E-04  0.1333E+00
     -2.107  0.2537E-05  0.1333E+00
     -2.027  0.1821E-06  0.1333E+00
     -1.948  0.1416E-06  0.1333E+00
     -1.868  0.1989E-05  0.1333E+00
     -1.789  0.2192E-04  0.1333E+00
     -1.709  0.1778E-03  0.1333E+00
     -1.630  0.1065E-02  0.1334E+00
     -1.550  0.4719E-02  0.1338E+00
     -1.471  0.1556E-01  0.1350E+00
     -1.391  0.3848E-01  0.1381E+00
     -1.311  0.7233E-01  0.1439E+00
     -1.232  0.1058E+00  0.1523E+00
     -1.152  0.1249E+00  0.1622E+00
     -1.073  0.1250E+00  0.1722E+00
     -0.993  0.1100E+00  0.1809E+00
     -0.914  0.8509E-01  0.1877E+00
     -0.834  0.5572E-01  0.1921E+00
     -0.754  0.2951E-01  0.1945E+00
     -0.675  0.1228E-01  0.1954E+00
     -0.595  0.4453E-02  0.1958E+00
     -0.516  0.3731E-02  0.1961E+00
     -0.436  0.9932E-02  0.1969E+00
     -0.357  0.2548E-01  0.1989E+00
     -0.277  0.4975E-01  0.2029E+00
     -0.197  0.7265E-01  0.2087E+00
     -0.118  0.7906E-01  0.2149E+00
     -0.038  0.6392E-01  0.2200E+00
      0.041  0.3830E-01  0.2231E+00
      0.121  0.1697E-01  0.2244E+00
      0.200  0.5572E-02  0.2249E+00
      0.280  0.1498E-02  0.2250E+00
      0.359  0.1088E-02  0.2251E+00
      0.439  0.3344E-02  0.2253E+00
      0.519  0.9485E-02  0.2261E+00
      0.598  0.1999E-01  0.2277E+00
      0.678  0.3130E-01  0.2302E+00
      0.757  0.3739E-01  0.2332E+00
      0.837  0.3691E-01  0.2361E+00
      0.916  0.3543E-01  0.2389E+00
      0.996  0.3691E-01  0.2418E+00
      1.076  0.3739E-01  0.2448E+00
      1.155  0.3135E-01  0.2473E+00
      1.235  0.2043E-01  0.2489E+00
      1.314  0.1186E-01  0.2499E+00
      1.394  0.1256E-01  0.2509E+00
      1.473  0.2731E-01  0.2531E+00
      1.553  0.5618E-01  0.2575E+00
      1.632  0.8796E-01  0.2645E+00
      1.712  0.1025E+00  0.2727E+00
      1.792  0.8882E-01  0.2797E+00
      1.871  0.5759E-01  0.2843E+00
      1.951  0.2953E-01  0.2867E+00
      2.030  0.1791E-01  0.2881E+00
      2.110  0.2625E-01  0.2902E+00
      2.189  0.5349E-01  0.2945E+00
      2.269  0.9196E-01  0.3018E+00
      2.349  0.1238E+00  0.3116E+00
      2.428  0.1308E+00  0.3220E+00
      2.508  0.1130E+00  0.3310E+00
      2.587  0.9106E-01  0.3383E+00
      2.667  0.8284E-01  0.3449E+00
      2.746  0.8608E-01  0.3517E+00
      2.826  0.8933E-01  0.3588E+00
      2.906  0.8954E-01  0.3659E+00
      2.985  0.8803E-01  0.3729E+00
      3.065  0.8152E-01  0.3794E+00
      3.144  0.7068E-01  0.3850E+00
      3.224  0.6734E-01  0.3904E+00
      3.303  0.8000E-01  0.3968E+00
      3.383  0.9897E-01  0.4046E+00
      3.462  0.1071E+00  0.4132E+00
      3.542  0.1026E+00  0.4213E+00
      3.622  0.1005E+00  0.4293E+00
      3.701  0.1085E+00  0.4380E+00
      3.781  0.1141E+00  0.4470E+00
      3.860  0.1035E+00  0.4553E+00
      3.940  0.8269E-01  0.4619E+00
      4.019  0.6757E-01  0.4672E+00
      4.099  0.6320E-01  0.4723E+00
      4.179  0.6508E-01  0.4774E+00
      4.258  0.7105E-01  0.4831E+00
      4.338  0.7968E-01  0.4894E+00
      4.417  0.8390E-01  0.4961E+00
      4.497  0.7697E-01  0.5022E+00
      4.576  0.6121E-01  0.5071E+00
      4.656  0.4560E-01  0.5107E+00
      4.735  0.3762E-01  0.5137E+00
      4.815  0.3739E-01  0.5167E+00
      4.895  0.3778E-01  0.5197E+00
      4.974  0.3216E-01  0.5223E+00
      5.054  0.2212E-01  0.5240E+00
      5.133  0.1483E-01  0.5252E+00
      5.213  0.1481E-01  0.5264E+00
      5.292  0.1979E-01  0.5280E+00
      5.372  0.2329E-01  0.5298E+00
      5.452  0.2081E-01  0.5315E+00
      5.531  0.1374E-01  0.5326E+00
      5.611  0.6665E-02  0.5331E+00
      5.690  0.2376E-02  0.5333E+00
      5.770  0.6219E-03  0.5333E+00
      5.849  0.1195E-03  0.5333E+00
      5.929  0.1743E-04  0.5333E+00
      6.009  0.8477E-05  0.5333E+00
      6.088  0.5764E-04  0.5333E+00
      6.168  0.3602E-03  0.5334E+00
      6.247  0.1656E-02  0.5335E+00
      6.327  0.5591E-02  0.5339E+00
      6.406  0.1386E-01  0.5350E+00
      6.486  0.2526E-01  0.5371E+00
      6.565  0.3390E-01  0.5398E+00
      6.645  0.3394E-01  0.5425E+00
      6.725  0.2700E-01  0.5446E+00
      6.804  0.2162E-01  0.5463E+00
      6.884  0.2429E-01  0.5483E+00
      6.963  0.3266E-01  0.5509E+00
      7.043  0.3861E-01  0.5539E+00
      7.122  0.3732E-01  0.5569E+00
      7.202  0.3189E-01  0.5594E+00
      7.282  0.2927E-01  0.5618E+00
      7.361  0.3458E-01  0.5645E+00
      7.441  0.4847E-01  0.5684E+00
      7.520  0.6685E-01  0.5737E+00
      7.600  0.8418E-01  0.5804E+00
      7.679  0.9759E-01  0.5882E+00
      7.759  0.1062E+00  0.5966E+00
      7.838  0.1095E+00  0.6053E+00
      7.918  0.1097E+00  0.6140E+00
      7.998  0.1089E+00  0.6227E+00
      8.077  0.1040E+00  0.6310E+00
      8.157  0.9265E-01  0.6384E+00
      8.236  0.8221E-01  0.6449E+00
      8.316  0.8414E-01  0.6516E+00
      8.395  0.1018E+00  0.6597E+00
      8.475  0.1247E+00  0.6696E+00
      8.555  0.1331E+00  0.6802E+00
      8.634  0.1142E+00  0.6893E+00
      8.714  0.7668E-01  0.6954E+00
      8.793  0.4263E-01  0.6988E+00
      8.873  0.2976E-01  0.7011E+00
      8.952  0.4528E-01  0.7047E+00
      9.032  0.8673E-01  0.7116E+00
      9.112  0.1386E+00  0.7227E+00
      9.191  0.1748E+00  0.7366E+00
      9.271  0.1769E+00  0.7507E+00
      9.350  0.1492E+00  0.7625E+00
      9.430  0.1113E+00  0.7714E+00
      9.509  0.8016E-01  0.7778E+00
      9.589  0.6306E-01  0.7828E+00
      9.668  0.6144E-01  0.7877E+00
      9.748  0.7312E-01  0.7935E+00
      9.828  0.9109E-01  0.8007E+00
      9.907  0.1050E+00  0.8091E+00
      9.987  0.1067E+00  0.8176E+00
     10.066  0.9498E-01  0.8251E+00
     10.146  0.7674E-01  0.8312E+00
     10.225  0.6123E-01  0.8361E+00
     10.305  0.5456E-01  0.8404E+00
     10.385  0.5722E-01  0.8450E+00
     10.464  0.6665E-01  0.8503E+00
     10.544  0.8006E-01  0.8567E+00
     10.623  0.9307E-01  0.8641E+00
     10.703  0.1016E+00  0.8722E+00
     10.782  0.1065E+00  0.8806E+00
     10.862  0.1105E+00  0.8894E+00
     10.941  0.1123E+00  0.8984E+00
     11.021  0.1078E+00  0.9069E+00
     11.101  0.9351E-01  0.9144E+00
     11.180  0.7082E-01  0.9200E+00
     11.260  0.5039E-01  0.9240E+00
     11.339  0.4743E-01  0.9278E+00
     11.419  0.6713E-01  0.9331E+00
     11.498  0.9568E-01  0.9407E+00
     11.578  0.1107E+00  0.9496E+00
     11.658  0.1050E+00  0.9579E+00
     11.737  0.9243E-01  0.9653E+00
     11.817  0.8511E-01  0.9720E+00
     11.896  0.7724E-01  0.9782E+00
     11.976  0.5943E-01  0.9829E+00
     12.055  0.3541E-01  0.9857E+00
     12.135  0.1608E-01  0.9870E+00
     12.215  0.6921E-02  0.9876E+00
     12.294  0.7154E-02  0.9881E+00
     12.374  0.1465E-01  0.9893E+00
     12.453  0.2592E-01  0.9914E+00
     12.533  0.3439E-01  0.9941E+00
     12.612  0.3498E-01  0.9969E+00
     12.692  0.3174E-01  0.9994E+00
     12.771  0.3683E-01  0.1002E+01
     12.851  0.5828E-01  0.1007E+01
     12.931  0.8768E-01  0.1014E+01
     13.010  0.1033E+00  0.1022E+01
     13.090  0.9118E-01  0.1029E+01
     13.169  0.6013E-01  0.1034E+01
     13.249  0.3093E-01  0.1037E+01
     13.328  0.1550E-01  0.1038E+01
     13.408  0.1203E-01  0.1039E+01
     13.488  0.1362E-01  0.1040E+01
     13.567  0.1703E-01  0.1041E+01
     13.647  0.2511E-01  0.1043E+01
     13.726  0.4115E-01  0.1047E+01
     13.806  0.6003E-01  0.1051E+01
     13.885  0.6867E-01  0.1057E+01
     13.965  0.5919E-01  0.1062E+01
     14.045  0.3803E-01  0.1065E+01
     14.124  0.1817E-01  0.1066E+01
     14.204  0.6443E-02  0.1067E+01
     14.283  0.1694E-02  0.1067E+01
     14.363  0.3300E-03  0.1067E+01
     14.442  0.4754E-04  0.1067E+01
     14.522  0.5059E-05  0.1067E+01
     14.601  0.3971E-06  0.1067E+01
     14.681  0.2297E-07  0.1067E+01
     14.761  0.9779E-09  0.1067E+01
     14.840  0.3060E-10  0.1067E+01
     14.920  0.7033E-12  0.1067E+01
     14.999  0.1188E-13  0.1067E+01
     15.079  0.1395E-15  0.1067E+01
     15.158  0.0000E+00  0.1067E+01
     15.238  0.0000E+00  0.1067E+01
     15.318  0.0000E+00  0.1067E+01
     15.397  0.0000E+00  0.1067E+01
     15.477  0.0000E+00  0.1067E+01
     15.556  0.0000E+00  0.1067E+01
     15.636  0.0000E+00  0.1067E+01
     15.715  0.0000E+00  0.1067E+01
     15.795  0.0000E+00  0.1067E+01
     15.874  0.0000E+00  0.1067E+01
