unknown system                          
   1.00000000000000     
    -2.437535    2.437535    1.293024
     2.437535   -2.437535    1.293024
     2.437535    2.437535   -1.293024
   Si
     2
Direct
  0.250000  0.750000  0.500000
  0.000000  0.000000  0.000000
 
   28   28   28
 -5.5853     -4.0518     -.55713E-01  4.8921      9.1008      11.437      11.700      10.499      8.7882      7.1661    
  5.8111      4.7833      4.0795      3.6730      3.5404      3.6730      4.0795      4.7834      5.8111      7.1661    
  8.7882      10.499      11.700      11.437      9.1008      4.8921     -.55734E-01 -4.0519     -4.0519     -4.8428    
 -2.6910      1.5500      6.2902      9.9579      11.661      11.431      10.005      8.2954      6.7416      5.4782    
  4.5444      3.9273      3.5995      3.5404      3.7453      4.2266      5.0093      6.1171      7.5427      9.2055    
  10.878      11.848      11.199      8.4819      4.1109     -.62788     -.55734E-01 -2.6910     -2.7509     -.21968    
  3.8842      8.0185      10.842      11.756      11.015      9.4234      7.7559      6.2944      5.1379      4.3057    
  3.7781      3.5287      3.5404      3.8126      4.3602      5.2088      6.3777      7.8482      9.5226      11.131    
  11.913      11.049      8.2565      4.1109      4.8921      1.5500     -.21968     0.31531      2.9212      6.5216    
  9.7402      11.544      11.639      10.457      8.7948      7.2004      5.8496      4.8085      4.0797      3.6397    
  3.4642      3.5405      3.8711      4.4729      5.3701      6.5766      8.0633      9.7206      11.256      11.931    
  11.049      8.4819      9.1008      6.2902      3.8842      2.9212      3.8297      6.2032      9.0166      11.150    
  11.910      11.280      9.7997      8.1542      6.6586      5.4302      4.5063      3.8773      3.5184      3.4091    
  3.5405      3.9178      4.5582      5.4834      6.7012      8.1743      9.7879      11.256      11.913      11.199    
  11.437      9.9578      8.0185      6.5217      6.2032      7.2348      9.1286      11.003      12.041      11.880    
  10.714      9.1125      7.5355      6.1575      5.0557      4.2444      3.7068      3.4194      3.3658      3.5406    
  3.9503      4.6113      5.5417      6.7436      8.1743      9.7206      11.131      11.848      11.700      11.661    
  10.842      9.7402      9.0167      9.1286      10.062      11.333      12.265      12.349      11.496      10.036    
  8.4471      6.9701      5.7198      4.7410      4.0326      3.5745      3.3464      3.3360      3.5406      3.9670    
  4.6293      5.5417      6.7012      8.0633      9.5226      10.878      10.499      11.431      11.756      11.544    
  11.150      11.003      11.333      12.019      12.649      12.770      12.145      10.886      9.3572      7.8422    
  6.4852      5.3631      4.4972      3.8774      3.4843      3.3016      3.3208      3.5407      3.9670      4.6113    
  5.4834      6.5766      7.8482      9.2055      8.7882      10.005      11.015      11.639      11.910      12.041    
  12.265      12.649      13.032      13.114      12.649      11.611      10.221      8.7405      7.3325      6.1028    
  5.1001      4.3312      3.7829      3.4386      3.2866      3.3208      3.5406      3.9503      4.5582      5.3701    
  6.3777      7.5427      7.1661      8.2954      9.4234      10.457      11.280      11.880      12.349      12.770    
  13.114      13.228      12.931      12.146      10.976      9.6182      8.2325      6.9469      5.8390      4.9392    
  4.2473      3.7512      3.4386      3.3016      3.3360      3.5406      3.9178      4.4729      5.2088      6.1171    
  5.8111      6.7416      7.7559      8.7949      9.7997      10.714      11.496      12.145      12.649      12.931    
  12.877      12.404      11.543      10.409      9.1394      7.8711      6.7067      5.7045      4.8851      4.2473    
  3.7829      3.4843      3.3464      3.3658      3.5405      3.8711      4.3602      5.0093      4.7834      5.4782    
  6.2944      7.2003      8.1543      9.1125      10.036      10.886      11.611      12.146      12.404      12.308    
  11.836      11.029      9.9861      8.8320      7.6835      6.6252      5.7045      4.9392      4.3312      3.8774    
  3.5745      3.4194      3.4091      3.5405      3.8126      4.2266      4.0795      4.5444      5.1379      5.8496    
  6.6586      7.5355      8.4471      9.3572      10.221      10.976      11.543      11.836      11.791      11.394    
  10.687      9.7609      8.7261      7.6835      6.7067      5.8390      5.1001      4.4972      4.0326      3.7068    
  3.5184      3.4642      3.5404      3.7453      3.6730      3.9273      4.3057      4.8085      5.4302      6.1575    
  6.9701      7.8422      8.7405      9.6182      10.409      11.029      11.394      11.440      11.153      10.567    
  9.7609      8.8320      7.8711      6.9469      6.1028      5.3631      4.7410      4.2444      3.8773      3.6397    
  3.5287      3.5404      3.5404      3.5994      3.7781      4.0797      4.5063      5.0556      5.7198      6.4852    
  7.3325      8.2325      9.1394      9.9861      10.687      11.153      11.317      11.153      10.687      9.9861    
  9.1394      8.2325      7.3325      6.4852      5.7198      5.0557      4.5063      4.0797      3.7781      3.5995    
  3.6730      3.5404      3.5286      3.6396      3.8773      4.2444      4.7410      5.3631      6.1028      6.9469    
  7.8711      8.8320      9.7609      10.567      11.153      11.440      11.394      11.029      10.409      9.6182    
  8.7405      7.8422      6.9701      6.1575      5.4302      4.8085      4.3057      3.9273      4.0795      3.7453    
  3.5404      3.4641      3.5184      3.7068      4.0325      4.4971      5.1001      5.8390      6.7067      7.6834    
  8.7261      9.7609      10.687      11.394      11.791      11.836      11.543      10.976      10.221      9.3572    
  8.4471      7.5355      6.6586      5.8496      5.1379      4.5444      4.7833      4.2265      3.8126      3.5405    
  3.4090      3.4194      3.5744      3.8774      4.3312      4.9392      5.7045      6.6252      7.6834      8.8320    
  9.9861      11.029      11.836      12.308      12.404      12.146      11.611      10.886      10.036      9.1125    
  8.1542      7.2004      6.2944      5.4782      5.8111      5.0092      4.3602      3.8711      3.5405      3.3657    
  3.3463      3.4842      3.7828      4.2473      4.8850      5.7045      6.7067      7.8711      9.1394      10.409    
  11.543      12.404      12.877      12.931      12.649      12.145      11.496      10.714      9.7997      8.7948    
  7.7559      6.7416      7.1661      6.1171      5.2088      4.4728      3.9178      3.5406      3.3360      3.3016    
  3.4386      3.7511      4.2473      4.9392      5.8390      6.9469      8.2325      9.6182      10.976      12.146    
  12.931      13.228      13.114      12.770      12.349      11.880      11.280      10.457      9.4234      8.2954    
  8.7882      7.5427      6.3777      5.3701      4.5581      3.9503      3.5406      3.3208      3.2866      3.4386    
  3.7828      4.3312      5.1001      6.1028      7.3325      8.7405      10.221      11.611      12.649      13.114    
  13.032      12.649      12.265      12.041      11.910      11.639      11.015      10.005      10.499      9.2055    
  7.8481      6.5765      5.4833      4.6112      3.9669      3.5406      3.3208      3.3016      3.4842      3.8774    
  4.4971      5.3631      6.4852      7.8422      9.3572      10.886      12.145      12.770      12.649      12.019    
  11.333      11.003      11.150      11.544      11.756      11.431      11.700      10.878      9.5225      8.0632    
  6.7011      5.5417      4.6293      3.9669      3.5406      3.3360      3.3463      3.5744      4.0325      4.7410    
  5.7198      6.9701      8.4471      10.036      11.496      12.349      12.265      11.333      10.062      9.1286    
  9.0166      9.7402      10.842      11.661      11.437      11.848      11.131      9.7206      8.1743      6.7435    
  5.5417      4.6112      3.9503      3.5406      3.3657      3.4194      3.7068      4.2444      5.0556      6.1575    
  7.5355      9.1125      10.714      11.880      12.041      11.003      9.1286      7.2348      6.2032      6.5216    
  8.0185      9.9579      9.1008      11.199      11.913      11.256      9.7879      8.1743      6.7011      5.4833    
  4.5581      3.9178      3.5405      3.4090      3.5184      3.8773      4.5063      5.4302      6.6586      8.1543    
  9.7997      11.280      11.910      11.150      9.0167      6.2032      3.8297      2.9212      3.8842      6.2902    
  4.8921      8.4819      11.049      11.931      11.256      9.7206      8.0632      6.5765      5.3701      4.4728    
  3.8711      3.5405      3.4641      3.6396      4.0797      4.8085      5.8496      7.2003      8.7949      10.457    
  11.639      11.544      9.7402      6.5217      2.9212     0.31531     -.21968      1.5500     -.55713E-01  4.1110    
  8.2566      11.049      11.913      11.131      9.5225      7.8481      6.3777      5.2088      4.3602      3.8126    
  3.5404      3.5286      3.7781      4.3057      5.1379      6.2944      7.7559      9.4234      11.015      11.756    
  10.842      8.0185      3.8842     -.21968     -2.7509     -2.6910     -4.0518     -.62785      4.1110      8.4819    
  11.199      11.848      10.878      9.2055      7.5427      6.1171      5.0092      4.2265      3.7453      3.5404    
  3.5994      3.9273      4.5444      5.4782      6.7416      8.2954      10.005      11.431      11.661      9.9578    
  6.2902      1.5500     -2.6910     -4.8428     -4.0518     -2.9409     0.55198      5.0777      9.0348      11.287    
  11.565      10.400      8.6996      7.0724      5.7026      4.6538      3.9247      3.4887      3.3207      3.4098    
  3.7625      4.4011      5.3532      6.6296      8.1862      9.8807      11.241      11.370      9.6013      5.9947    
  1.4984     -2.3416     -2.9409     -4.0518     -2.3416      1.4984      5.9947      9.6014      11.370      11.241    
  9.8807      8.1862      6.6296      5.3532      4.4010      3.7625      3.4098      3.3207      3.4888      3.9248    
  4.6539      5.7027      7.0725      8.6996      10.400      11.565      11.287      9.0347      5.0777     0.55197    
 0.65269     -2.2342     -2.6910     -.55223      3.2997      7.3811      10.315      11.408      10.816      9.2919    
  7.6389      6.1749      5.0069      4.1598      3.6156      3.3470      3.3359      3.5802      4.0945      4.9054    
  6.0366      7.4792      9.1511      10.825      11.810      11.255      8.7822      4.8377      5.3392      1.7880    
 -.35094     -.21966      2.0940      5.6068      8.9406      10.978      11.309      10.281      8.6689      7.0861    
  5.7318      4.6811      3.9416      3.4907      3.3034      3.3657      3.6799      4.2632      5.1423      6.3362    
  7.8257      9.5142      11.143      12.001      11.340      8.9315      9.4651      6.4864      3.7433      2.3653    
  2.9213      5.1264      7.9983      10.363      11.414      11.020      9.6592      8.0438      6.5544      5.3215    
  4.3908      3.7563      3.3936      3.2810      3.4091      3.7833      4.4224      5.3513      6.5835      8.0904    
  9.7657      11.342      12.147      11.555      11.854      10.264      8.0471      6.1545      5.4384      6.2032    
  8.0461      10.080      11.400      11.520      10.541      9.0049      7.4452      6.0680      4.9618      4.1479    
  3.6114      3.3283      3.2810      3.4643      3.8857      4.5637      5.5203      6.7628      8.2551      9.8877    
  11.409      12.232      12.221      12.146      11.141      9.7117      8.5953      8.3692      9.1286      10.435    
  11.569      11.918      11.285      9.9336      8.3713      6.9003      5.6475      4.6667      3.9615      3.5121    
  3.2971      3.3034      3.5288      3.9818      4.6792      5.6388      6.8619      8.3076      9.8692      11.332    
  11.101      12.070      12.318      11.888      11.169      10.675      10.745      11.333      12.040      12.347    
  11.921      10.790      9.2977      7.7919      6.4335      5.3090      4.4463      3.8372      3.4613      3.3009    
  3.3471      3.5996      4.0666      4.7621      5.6989      6.8731      8.2424      9.7082      9.4129      10.717    
  11.746      12.277      12.336      12.180      12.123      12.317      12.649      12.802      12.466      11.535    
  10.181      8.7082      7.2982      6.0652      5.0648      4.3069      3.7781      3.4599      3.3390      3.4098    
  3.6731      4.1354      4.8070      5.6959      6.7946      8.0624      7.7789      9.0014      10.199      11.242    
  11.976      12.393      12.628      12.833      13.038      13.114      12.850      12.114      10.961      9.6001    
  8.2087      6.9181      5.8115      4.9228      4.2521      3.7851      3.5072      3.4095      3.4887      3.7454    
  4.1838      4.8106      5.6295      6.6311      6.3932      7.4109      8.5007      9.5871      10.592      11.432    
  12.066      12.533      12.871      13.040      12.931      12.437      11.553      10.399      9.1151      7.8383    
  6.6743      5.6838      4.8878      4.2828      3.8572      3.6013      3.5096      3.5801      3.8126      4.2089    
  4.7722      5.5036      5.3262      6.0970      6.9832      7.9432      8.9219      9.8630      10.721      11.454    
  12.036      12.434      12.582      12.404      11.868      11.018      9.9468      8.7779      7.6279      6.5828    
  5.6890      4.9615      4.3983      3.9924      3.7390      3.6353      3.6797      3.8710      4.2088      4.6941    
  4.5812      5.1092      5.7621      6.5235      7.3638      8.2439      9.1222      9.9598      10.718      11.350    
  11.791      11.972      11.836      11.370      10.617      9.6664      8.6265      7.5979      6.6523      5.8290    
  5.1427      4.5957      4.1870      3.9159      3.7818      3.7832      3.9177      4.1838      4.1353      4.4406    
  4.8665      5.4095      6.0593      6.7958      7.5919      8.4164      9.2358      10.009      10.681      11.181    
  11.436      11.394      11.040      10.416      9.5976      8.6819      7.7559      6.8831      6.1007      5.4270    
  4.8702      4.4355      4.1261      3.9432      3.8855      3.9501      3.9668      4.0665      4.2813      4.6126    
  5.0596      5.6159      6.2688      6.9999      7.7866      8.6004      9.4007      10.129      10.712      11.073    
  11.153      10.935      10.447      9.7557      8.9460      8.0965      7.2669      6.4958      5.8065      5.2141    
  4.7300      4.3617      4.1125      3.9816      4.0665      3.9668      3.9816      4.1125      4.3617      4.7300    
  5.2142      5.8065      6.4958      7.2669      8.0965      8.9460      9.7557      10.447      10.935      11.153    
  11.073      10.712      10.129      9.4007      8.6004      7.7866      6.9999      6.2688      5.6159      5.0595    
  4.6126      4.2813      4.4407      4.1353      3.9502      3.8855      3.9433      4.1261      4.4355      4.8702    
  5.4270      6.1007      6.8831      7.7559      8.6819      9.5976      10.416      11.040      11.394      11.436    
  11.181      10.681      10.009      9.2358      8.4164      7.5919      6.7958      6.0593      5.4095      4.8664    
  5.1092      4.5812      4.1838      3.9177      3.7832      3.7819      3.9159      4.1870      4.5957      5.1427    
  5.8290      6.6523      7.5979      8.6265      9.6664      10.617      11.370      11.836      11.972      11.791    
  11.350      10.718      9.9598      9.1222      8.2439      7.3638      6.5235      5.7621      6.0970      5.3263    
  4.6942      4.2089      3.8711      3.6798      3.6353      3.7390      3.9924      4.3983      4.9615      5.6890    
  6.5828      7.6279      8.7779      9.9468      11.018      11.868      12.404      12.582      12.434      12.036    
  11.454      10.721      9.8629      8.9219      7.9433      6.9833      7.4110      6.3932      5.5036      4.7723    
  4.2089      3.8126      3.5801      3.5096      3.6013      3.8572      4.2828      4.8878      5.6838      6.6742    
  7.8383      9.1151      10.399      11.553      12.437      12.931      13.040      12.870      12.533      12.066    
  11.432      10.592      9.5871      8.5007      9.0015      7.7789      6.6311      5.6296      4.8106      4.1838    
  3.7454      3.4887      3.4095      3.5072      3.7850      4.2520      4.9228      5.8115      6.9181      8.2087    
  9.6001      10.961      12.114      12.850      13.113      13.038      12.833      12.628      12.393      11.976    
  11.242      10.199      10.717      9.4129      8.0624      6.7947      5.6960      4.8070      4.1354      3.6731    
  3.4098      3.3390      3.4598      3.7781      4.3069      5.0647      6.0652      7.2982      8.7082      10.181    
  11.535      12.466      12.802      12.649      12.317      12.123      12.180      12.336      12.277      11.746    
  12.070      11.101      9.7082      8.2424      6.8731      5.6989      4.7621      4.0666      3.5996      3.3470    
  3.3008      3.4612      3.8372      4.4463      5.3090      6.4335      7.7919      9.2977      10.790      11.921    
  12.347      12.040      11.333      10.745      10.675      11.169      11.888      12.318      12.146      12.221    
  11.332      9.8692      8.3076      6.8618      5.6388      4.6791      3.9817      3.5287      3.3033      3.2970    
  3.5120      3.9614      4.6667      5.6474      6.9003      8.3713      9.9335      11.284      11.918      11.569    
  10.435      9.1286      8.3692      8.5953      9.7116      11.141      10.264      11.854      12.232      11.409    
  9.8877      8.2551      6.7628      5.5202      4.5636      3.8856      3.4642      3.2809      3.3282      3.6113    
  4.1479      4.9618      6.0680      7.4452      9.0049      10.541      11.520      11.400      10.080      8.0461    
  6.2032      5.4384      6.1545      8.0471      6.4864      9.4651      11.555      12.147      11.342      9.7657    
  8.0903      6.5834      5.3512      4.4223      3.7832      3.4090      3.2809      3.3935      3.7562      4.3907    
  5.3215      6.5544      8.0438      9.6592      11.020      11.414      10.363      7.9983      5.1265      2.9213    
  2.3654      3.7433      1.7880      5.3392      8.9315      11.340      12.001      11.143      9.5141      7.8256    
  6.3361      5.1422      4.2631      3.6798      3.3657      3.3033      3.4906      3.9415      4.6811      5.7318    
  7.0861      8.6689      10.281      11.309      10.978      8.9406      5.6068      2.0941     -.21960     -.35088    
 -2.2342     0.65271      4.8377      8.7822      11.255      11.810      10.825      9.1511      7.4791      6.0365    
  4.9053      4.0944      3.5801      3.3359      3.3470      3.6155      4.1598      5.0069      6.1749      7.6390    
  9.2919      10.816      11.408      10.315      7.3811      3.2998     -.55218     -2.6909     -.55535E-01 0.65282    
  3.3494      6.9436      10.076      11.753      11.727      10.462      8.7630      7.1474      5.7810      4.7241    
  3.9756      3.5097      3.3016      3.3391      3.6255      4.1793      5.0269      6.1842      7.6255      9.2459    
  10.752      11.410      10.550      8.0681      4.6339      1.4985     0.55209     -.62768     0.55209      3.5956    
  7.2708      10.222      11.583      11.274      9.8802      8.2056      6.6666      5.3972      4.4404      3.7869    
  3.4096      3.2866      3.4097      3.7869      4.4404      5.3972      6.6666      8.2056      9.8801      11.274    
  11.583      10.222      7.2708      3.5956      3.3494     0.65281     -.55553E-01  1.4985      4.6339      8.0681    
  10.550      11.410      10.752      9.2459      7.6255      6.1842      5.0269      4.1793      3.6255      3.3391    
  3.3017      3.5097      3.9756      4.7242      5.7810      7.1474      8.7630      10.462      11.727      11.753    
  10.076      6.9436      7.1903      3.9625      1.7881      1.5501      3.2998      6.2367      9.1280      10.916    
  11.168      10.158      8.5942      7.0514      5.7236      4.6871      3.9522      3.4982      3.3009      3.3464    
  3.6354      4.1838      5.0176      6.1594      7.6011      9.2670      10.963      12.113      11.973      10.206    
  10.626      7.9815      5.3233      3.7434      3.8843      5.6069      8.0738      10.196      11.168      10.805    
  9.5116      7.9548      6.5088      5.3050      4.3924      3.7684      3.4103      3.2971      3.4194      3.7819    
  4.4024      5.3064      6.5119      8.0013      9.6863      11.356      12.432      12.260      12.582      11.259    
  9.1608      7.1692      6.1546      6.5217      7.9983      9.7953      11.036      11.197      10.308      8.8526    
  7.3533      6.0201      4.9451      4.1540      3.6349      3.3653      3.3282      3.5184      3.9433      4.6212    
  5.5753      6.8176      8.3217      9.9914      11.615      12.662      12.768      12.867      11.963      10.485    
  9.1516      8.5953      9.0167      10.080      11.114      11.494      10.961      9.7129      8.2259      6.8131    
  5.6038      4.6570      3.9804      3.5567      3.3653      3.3935      3.6397      4.1125      4.8291      5.8086    
  7.0566      8.5392      10.157      11.717      11.641      12.708      13.022      12.565      11.687      10.919    
  10.675      11.003      11.569      11.867      11.524      10.501      9.0959      7.6587      6.3548      5.2743    
  4.4500      3.8770      3.5361      3.4102      3.4906      3.7782      4.2813      5.0145      5.9917      7.2117    
  8.6361      10.168      10.019      11.381      12.450      12.965      12.911      12.538      12.199      12.123    
  12.265      12.347      12.043      11.196      9.9270      8.5245      7.1765      5.9961      5.0426      4.3300    
  3.8462      3.5733      3.4981      3.6154      3.9273      4.4406      5.1660      6.1116      7.2707      8.6028    
  8.4399      9.7178      10.949      11.987      12.649      12.906      12.908      12.852      12.833      12.769    
  12.466      11.762      10.666      9.3648      8.0356      6.8031      5.7509      4.9158      4.2996      3.8881    
  3.6664      3.6253      3.7624      4.0795      4.5811      5.2735      6.1593      7.2278      7.0855      8.1587    
  9.2862      10.380      11.346      12.081      12.539      12.781      12.888      12.870      12.648      12.114    
  11.237      10.115      8.8824      7.6633      6.5590      5.6300      4.8979      4.3591      4.0007      3.8117    
  3.7867      3.9246      4.2265      4.6941      5.3293      6.1307      6.0275      6.8540      7.7799      8.7554    
  9.7146      10.590      11.327      11.885      12.258      12.452      12.434      12.146      11.553      10.693    
  9.6486      8.5274      7.4375      6.4602      5.6399      4.9902      4.5067      4.1801      4.0039      3.9754    
  4.0943      4.3601      4.7722      5.3293      5.2736      5.8570      6.5502      7.3311      8.1631      8.9989    
  9.7896      10.494      11.080      11.518      11.770      11.791      11.543      11.018      10.253      9.3275    
  8.3394      7.3806      6.5170      5.7836      5.1914      4.7387      4.4211      4.2362      4.1836      4.2630    
  4.4728      4.8106      4.8070      5.1661      5.6316      6.1958      6.8430      7.5481      8.2783      8.9985    
  9.6754      10.275      10.760      11.079      11.181      11.029      10.617      9.9831      9.1972      8.3453    
  7.5054      6.7333      6.0599      5.4973      5.0491      4.7162      4.5002      4.4023      4.4222      4.5581    
  4.6112      4.7621      5.0146      5.3668      5.8139      6.3461      6.9467      7.5940      8.2632      8.9273    
  9.5530      10.096      10.502      10.712      10.687      10.416      9.9278      9.2836      8.5563      7.8137    
  7.1057      6.4625      5.9007      5.4295      5.0559      4.7855      4.6212      4.5636      4.6792      4.6293    
  4.6792      4.8292      5.0793      5.4273      5.8675      6.3896      6.9801      7.6224      8.2952      8.9667    
  9.5900      10.105      10.447      10.567      10.447      10.105      9.5900      8.9667      8.2952      7.6224    
  6.9800      6.3896      5.8675      5.4273      5.0792      4.8292      5.0146      4.7621      4.6113      4.5636    
  4.6213      4.7855      5.0560      5.4295      5.9007      6.4626      7.1057      7.8137      8.5563      9.2836    
  9.9278      10.416      10.687      10.712      10.502      10.096      9.5530      8.9273      8.2632      7.5940    
  6.9467      6.3461      5.8139      5.3668      5.6316      5.1662      4.8071      4.5581      4.4223      4.4024    
  4.5003      4.7163      5.0491      5.4974      6.0599      6.7333      7.5054      8.3453      9.1972      9.9831    
  10.617      11.029      11.181      11.079      10.760      10.276      9.6754      8.9986      8.2783      7.5481    
  6.8430      6.1958      6.5503      5.8571      5.2737      4.8107      4.4728      4.2631      4.1837      4.2363    
  4.4211      4.7387      5.1914      5.7836      6.5170      7.3806      8.3395      9.3275      10.253      11.018    
  11.543      11.791      11.770      11.518      11.080      10.494      9.7896      8.9989      8.1631      7.3311    
  7.7799      6.8541      6.0276      5.3294      4.7723      4.3602      4.0943      3.9755      4.0039      4.1802    
  4.5067      4.9902      5.6399      6.4601      7.4375      8.5274      9.6486      10.693      11.553      12.146    
  12.434      12.452      12.258      11.885      11.327      10.590      9.7147      8.7554      9.2862      8.1587    
  7.0856      6.1308      5.3294      4.6941      4.2265      3.9247      3.7867      3.8117      4.0007      4.3591    
  4.8979      5.6300      6.5590      7.6633      8.8824      10.115      11.237      12.114      12.648      12.870    
  12.888      12.781      12.539      12.081      11.346      10.380      10.949      9.7178      8.4399      7.2279    
  6.1594      5.2735      4.5812      4.0795      3.7624      3.6253      3.6664      3.8882      4.2996      4.9158    
  5.7509      6.8031      8.0356      9.3648      10.666      11.762      12.466      12.769      12.833      12.852    
  12.908      12.906      12.649      11.987      12.450      11.381      10.019      8.6028      7.2707      6.1117    
  5.1660      4.4407      3.9273      3.6155      3.4981      3.5733      3.8463      4.3300      5.0426      5.9960    
  7.1765      8.5245      9.9270      11.196      12.043      12.347      12.265      12.122      12.199      12.538    
  12.911      12.965      13.022      12.708      11.641      10.168      8.6361      7.2117      5.9917      5.0145    
  4.2813      3.7782      3.4906      3.4101      3.5361      3.8770      4.4500      5.2743      6.3548      7.6587    
  9.0959      10.501      11.524      11.867      11.568      11.003      10.675      10.919      11.686      12.565    
  11.963      12.867      12.768      11.717      10.157      8.5392      7.0566      5.8086      4.8291      4.1125    
  3.6397      3.3935      3.3653      3.5567      3.9804      4.6570      5.6038      6.8131      8.2259      9.7129    
  10.961      11.494      11.114      10.080      9.0166      8.5952      9.1515      10.485      9.1608      11.259    
  12.582      12.662      11.615      9.9913      8.3217      6.8176      5.5752      4.6212      3.9433      3.5184    
  3.3282      3.3653      3.6349      4.1540      4.9451      6.0201      7.3533      8.8526      10.308      11.197    
  11.036      9.7953      7.9983      6.5217      6.1546      7.1692      5.3233      7.9815      10.625      12.259    
  12.432      11.356      9.6863      8.0013      6.5119      5.3064      4.4024      3.7819      3.4194      3.2970    
  3.4102      3.7683      4.3923      5.3050      6.5088      7.9548      9.5116      10.805      11.168      10.196    
  8.0738      5.6069      3.8843      3.7434      1.7881      3.9625      7.1903      10.206      11.973      12.113    
  10.963      9.2670      7.6011      6.1594      5.0176      4.1838      3.6354      3.3463      3.3009      3.4982    
  3.9522      4.6871      5.7236      7.0514      8.5942      10.158      11.168      10.916      9.1279      6.2366    
  3.2999      1.5501      4.8923      5.3393      7.1903      9.6472      11.678      12.530      12.045      10.637    
  8.9627      7.3871      6.0482      4.9984      4.2363      3.7390      3.4842      3.4599      3.6665      4.1173    
  4.8341      5.8353      7.1107      8.5902      10.111      11.216      11.300      10.129      8.0681      5.9948    
  5.0778      4.1111      4.8378      6.9436      9.5005      11.450      12.115      11.458      9.9863      8.3515    
  6.8552      5.6144      4.6669      4.0040      3.6013      3.4386      3.5072      3.8118      4.3694      5.2039    
  6.3298      7.7237      9.2915      10.807      11.685      11.348      9.6959      7.2708      6.9436      4.8378    
  4.1111      5.0778      7.2708      9.6960      11.348      11.685      10.807      9.2915      7.7237      6.3298    
  5.2039      4.3694      3.8118      3.5072      3.4386      3.6013      4.0040      4.6669      5.6144      6.8552    
  8.3515      9.9863      11.458      12.115      11.450      9.5005      9.6472      7.1903      5.3393      4.8923    
  5.9948      8.0681      10.129      11.300      11.216      10.111      8.5902      7.1107      5.8353      4.8341    