unknown system                          
   1.00000000000000     
    -2.386138    2.386138    1.350721
     2.386138   -2.386138    1.350721
     2.386138    2.386138   -1.350721
   Si
     2
Direct
  0.250000  0.750000  0.500000
  0.000000  0.000000  0.000000
 
   28   28   28
 -.56269972560E+01 -.41236018659E+01 -.18432386279E+00 0.47527721339E+01 0.90495691477E+01
 0.11562230103E+02 0.12019355473E+02 0.10950514115E+02 0.92718757635E+01 0.76325951283E+01
 0.62361542895E+01 0.51601052909E+01 0.44146055127E+01 0.39810074526E+01 0.38391313158E+01
 0.39810002456E+01 0.44146137675E+01 0.51601291965E+01 0.62361678160E+01 0.76325904505E+01
 0.92718726013E+01 0.10950521361E+02 0.12019360485E+02 0.11562228978E+02 0.90495715840E+01
 0.47527741159E+01 -.18433639763E+00 -.41236204199E+01 -.41236204199E+01 -.47987807996E+01
 -.26082400471E+01 0.16051740713E+01 0.63151354865E+01 0.10010018361E+02 0.11807404335E+02
 0.11696992288E+02 0.10355784222E+02 0.86726054523E+01 0.71140062026E+01 0.58276793146E+01
 0.48660573388E+01 0.42272579339E+01 0.38905655914E+01 0.38391513121E+01 0.40701814249E+01
 0.45962069646E+01 0.54390027157E+01 0.66126227634E+01 0.80928811569E+01 0.97781489617E+01
 0.11396889036E+02 0.12179859676E+02 0.11271483859E+02 0.83295556220E+01 0.38607483912E+01
 -.83014547788E+00 -.18433639763E+00 -.26082515003E+01 -.24932610858E+01 0.93406451008E-01
 0.41382653912E+01 0.81721155008E+01 0.10933799477E+02 0.11858404174E+02 0.11177465647E+02
 0.96474767482E+01 0.80163920754E+01 0.65688774521E+01 0.54114514596E+01 0.45734569196E+01
 0.40442396604E+01 0.38035819976E+01 0.38392015258E+01 0.41532954203E+01 0.47617817707E+01
 0.56860752440E+01 0.69336470428E+01 0.84659753854E+01 0.10161520107E+02 0.11686798613E+02
 0.12239131987E+02 0.11081222794E+02 0.80629566669E+01 0.38607483912E+01 0.47527741159E+01
 0.16051684617E+01 0.93406529305E-01 0.80356888623E+00 0.34174310265E+01 0.68781317075E+01
 0.99049001509E+01 0.11566118412E+02 0.11617376609E+02 0.10473680381E+02 0.88803443675E+01
 0.73422124856E+01 0.60288106966E+01 0.50103879974E+01 0.42975586434E+01 0.38747348983E+01
 0.37243814894E+01 0.38392557358E+01 0.42258173509E+01 0.49017531873E+01 0.58861874539E+01
 0.71788282654E+01 0.87283881922E+01 0.10399872935E+02 0.11827529304E+02 0.12251674404E+02
 0.11081222794E+02 0.83295556220E+01 0.90495715840E+01 0.63151332074E+01 0.41382683870E+01
 0.34174428042E+01 0.44350367434E+01 0.67207609515E+01 0.92984212372E+01 0.11167338419E+02
 0.11748060787E+02 0.11071041341E+02 0.96520454285E+01 0.81017592689E+01 0.66881268840E+01
 0.55223911514E+01 0.46442598287E+01 0.40512340587E+01 0.37264929645E+01 0.36566605710E+01
 0.38392900154E+01 0.42838262287E+01 0.50079586637E+01 0.60269204121E+01 0.73324849445E+01
 0.88637640397E+01 0.10480552920E+02 0.11827529304E+02 0.12239131987E+02 0.11271483859E+02
 0.11562228978E+02 0.10010013181E+02 0.81721089802E+01 0.68781418533E+01 0.67207804340E+01
 0.77482731458E+01 0.94461898715E+01 0.11014066785E+02 0.11769657286E+02 0.11454567978E+02
 0.10294797214E+02 0.88068388429E+01 0.73557792493E+01 0.60877966061E+01 0.50731160023E+01
 0.43286211932E+01 0.38444631579E+01 0.36055793707E+01 0.36033660331E+01 0.38392974394E+01
 0.43242456055E+01 0.50742299148E+01 0.60995344751E+01 0.73848129864E+01 0.88637640397E+01
 0.10399872935E+02 0.11686798613E+02 0.12179859676E+02 0.12019360485E+02 0.11807407854E+02
 0.10933788459E+02 0.99048910315E+01 0.92984346573E+01 0.94462106020E+01 0.10250921278E+02
 0.11246197547E+02 0.11858096764E+02 0.11708326116E+02 0.10788950432E+02 0.94276201471E+01
 0.79998883521E+01 0.66815580558E+01 0.55681886629E+01 0.46984712556E+01 0.40745810589E+01
 0.36843387567E+01 0.35163839765E+01 0.35666649327E+01 0.38392895316E+01 0.43449820847E+01
 0.50967500308E+01 0.60995344751E+01 0.73324849445E+01 0.87283881922E+01 0.10161520107E+02
 0.11396889036E+02 0.10950521361E+02 0.11697010789E+02 0.11858411718E+02 0.11566105643E+02
 0.11167329321E+02 0.11014078806E+02 0.11246213154E+02 0.11705781917E+02 0.12034587716E+02
 0.11889460821E+02 0.11140933430E+02 0.99414529073E+01 0.85922676389E+01 0.72780900023E+01
 0.61105568392E+01 0.51488224137E+01 0.44101491589E+01 0.38892853856E+01 0.35754478364E+01
 0.34617955078E+01 0.35479680606E+01 0.38392841241E+01 0.43449820847E+01 0.50742299148E+01
 0.60269204121E+01 0.71788282654E+01 0.84659753854E+01 0.97781489617E+01 0.92718726013E+01
 0.10355798197E+02 0.11177490977E+02 0.11617386575E+02 0.11748050945E+02 0.11769650805E+02
 0.11858103741E+02 0.12034594241E+02 0.12145162276E+02 0.11962608279E+02 0.11341008889E+02
 0.10322236323E+02 0.91048388856E+01 0.78515892452E+01 0.66799412087E+01 0.56656816064E+01
 0.48423855752E+01 0.42150866803E+01 0.37768128471E+01 0.35204182814E+01 0.34434274312E+01
 0.35479680606E+01 0.38392895316E+01 0.43242456055E+01 0.50079586637E+01 0.58861874539E+01
 0.69336470428E+01 0.80928811569E+01 0.76325904505E+01 0.86726009721E+01 0.96474912630E+01
 0.10473704216E+02 0.11071051612E+02 0.11454564410E+02 0.11708323874E+02 0.11889461412E+02
 0.11962605356E+02 0.11814707595E+02 0.11339809047E+02 0.10532841684E+02 0.95037164537E+01
 0.83731105192E+01 0.72542636467E+01 0.62340372528E+01 0.53619872210E+01 0.46561844521E+01
 0.41168448277E+01 0.37391321810E+01 0.35204182814E+01 0.34617955078E+01 0.35666649327E+01
 0.38392974394E+01 0.42838262287E+01 0.49017531873E+01 0.56860752440E+01 0.66126227634E+01
 0.62361678160E+01 0.71140020556E+01 0.80163869391E+01 0.88803537123E+01 0.96520609347E+01
 0.10294805700E+02 0.10788953851E+02 0.11140935572E+02 0.11341004290E+02 0.11339799535E+02
 0.11075412758E+02 0.10530407137E+02 0.97479988858E+01 0.88072661709E+01 0.78068010498E+01
 0.68365506057E+01 0.59594133433E+01 0.52081904559E+01 0.45937730028E+01 0.41168448277E+01
 0.37768128471E+01 0.35754478364E+01 0.35163839765E+01 0.36033660331E+01 0.38392900154E+01
 0.42258173509E+01 0.47617817707E+01 0.54390027157E+01 0.51601291965E+01 0.58276938719E+01
 0.65688759654E+01 0.73422075960E+01 0.81017605177E+01 0.88068429741E+01 0.94276252405E+01
 0.99414612449E+01 0.10322241643E+02 0.10532834805E+02 0.10530395478E+02 0.10284693640E+02
 0.97980985750E+01 0.91133115281E+01 0.83032825953E+01 0.74496583355E+01 0.66219680959E+01
 0.58667355217E+01 0.52081904559E+01 0.46561844521E+01 0.42150866803E+01 0.38892853856E+01
 0.36843387567E+01 0.36055793707E+01 0.36566605710E+01 0.38392557358E+01 0.41532954203E+01
 0.45962069646E+01 0.44146137675E+01 0.48660742141E+01 0.54114635716E+01 0.60288126444E+01
 0.66881232137E+01 0.73557732808E+01 0.79998824368E+01 0.85922684788E+01 0.91048483397E+01
 0.95037230552E+01 0.97479928823E+01 0.97980886735E+01 0.96309576162E+01 0.92530671248E+01
 0.87026360462E+01 0.80393940156E+01 0.73277396932E+01 0.66219680959E+01 0.59594133433E+01
 0.53619872210E+01 0.48423855752E+01 0.44101491589E+01 0.40745810589E+01 0.38444631579E+01
 0.37264929645E+01 0.37243814894E+01 0.38392015258E+01 0.40701814249E+01 0.39810002456E+01
 0.42272555331E+01 0.45734618813E+01 0.50103952224E+01 0.55223956152E+01 0.60877950017E+01
 0.66815488998E+01 0.72780785073E+01 0.78515857611E+01 0.83731173020E+01 0.88072723506E+01
 0.91133083799E+01 0.92530607182E+01 0.92029253607E+01 0.89634280844E+01 0.85607663830E+01
 0.80393940156E+01 0.74496583355E+01 0.68365506057E+01 0.62340372528E+01 0.56656816064E+01
 0.51488224137E+01 0.46984712556E+01 0.43286211932E+01 0.40512340587E+01 0.38747348983E+01
 0.38035819976E+01 0.38391513121E+01 0.38391313158E+01 0.38905551555E+01 0.40442270802E+01
 0.42975522023E+01 0.46442612750E+01 0.50731207769E+01 0.55681896659E+01 0.61105496946E+01
 0.66799293590E+01 0.72542564318E+01 0.78068030543E+01 0.83032875330E+01 0.87026357901E+01
 0.89634242938E+01 0.90542734935E+01 0.89634280844E+01 0.87026360462E+01 0.83032825953E+01
 0.78068010498E+01 0.72542636467E+01 0.66799412087E+01 0.61105568392E+01 0.55681886629E+01
 0.50731160023E+01 0.46442598287E+01 0.42975586434E+01 0.40442396604E+01 0.38905655914E+01
 0.39810074526E+01 0.38391525523E+01 0.38035708493E+01 0.38747175917E+01 0.40512213835E+01
 0.43286174183E+01 0.46984738193E+01 0.51488261408E+01 0.56656804377E+01 0.62340286294E+01
 0.68365407066E+01 0.74496559819E+01 0.80393979720E+01 0.85607673203E+01 0.89634242938E+01
 0.92029253607E+01 0.92530671248E+01 0.91133115281E+01 0.88072661709E+01 0.83731105192E+01
 0.78515892452E+01 0.72780900023E+01 0.66815580558E+01 0.60877966061E+01 0.55223911514E+01
 0.50103879974E+01 0.45734569196E+01 0.42272579339E+01 0.44146055127E+01 0.40701844052E+01
 0.38392032533E+01 0.37243729680E+01 0.37264790515E+01 0.38444513910E+01 0.40745734965E+01
 0.44101477865E+01 0.48423916808E+01 0.53619929963E+01 0.59594085280E+01 0.66219568059E+01
 0.73277355993E+01 0.80393979720E+01 0.87026357901E+01 0.92530607182E+01 0.96309576162E+01
 0.97980985750E+01 0.97479988858E+01 0.95037164537E+01 0.91048388856E+01 0.85922676389E+01
 0.79998883521E+01 0.73557792493E+01 0.66881268840E+01 0.60288106966E+01 0.54114514596E+01
 0.48660573388E+01 0.51601052909E+01 0.45961926496E+01 0.41532947098E+01 0.38392567746E+01
 0.36566576975E+01 0.36055761151E+01 0.36843336397E+01 0.38892756232E+01 0.42150812166E+01
 0.46561921775E+01 0.52082007899E+01 0.58667323434E+01 0.66219568059E+01 0.74496559819E+01
 0.83032875330E+01 0.91133083799E+01 0.97980886735E+01 0.10284693640E+02 0.10530407137E+02
 0.10532841684E+02 0.10322236323E+02 0.99414529073E+01 0.94276201471E+01 0.88068388429E+01
 0.81017592689E+01 0.73422124856E+01 0.65688774521E+01 0.58276793146E+01 0.62361542895E+01
 0.54389804193E+01 0.47617689233E+01 0.42258144375E+01 0.38392892955E+01 0.36033703672E+01
 0.35163945792E+01 0.35754511681E+01 0.37768021012E+01 0.41168367888E+01 0.45937813025E+01
 0.52082007899E+01 0.59594085280E+01 0.68365407066E+01 0.78068030543E+01 0.88072723506E+01
 0.97479928823E+01 0.10530395478E+02 0.11075412758E+02 0.11339809047E+02 0.11341008889E+02
 0.11140933430E+02 0.10788950432E+02 0.10294797214E+02 0.96520454285E+01 0.88803443675E+01
 0.80163920754E+01 0.71140062026E+01 0.76325951283E+01 0.66126137718E+01 0.56860635720E+01
 0.49017488615E+01 0.42838227021E+01 0.38392944977E+01 0.35666758876E+01 0.34618176080E+01
 0.35204273226E+01 0.37391211794E+01 0.41168367888E+01 0.46561921775E+01 0.53619929963E+01
 0.62340286294E+01 0.72542564318E+01 0.83731173020E+01 0.95037230552E+01 0.10532834805E+02
 0.11339799535E+02 0.11814707595E+02 0.11962608279E+02 0.11889460821E+02 0.11708326116E+02
 0.11454567978E+02 0.11071041341E+02 0.10473680381E+02 0.96474767482E+01 0.86726054523E+01
 0.92718757635E+01 0.80928838262E+01 0.69336449757E+01 0.58861920763E+01 0.50079662736E+01
 0.43242424496E+01 0.38392847609E+01 0.35479829641E+01 0.34434539727E+01 0.35204273226E+01
 0.37768021012E+01 0.42150812166E+01 0.48423916808E+01 0.56656804377E+01 0.66799293590E+01
 0.78515857611E+01 0.91048483397E+01 0.10322241643E+02 0.11341004290E+02 0.11962605356E+02
 0.12145162276E+02 0.12034587716E+02 0.11858096764E+02 0.11769657286E+02 0.11748060787E+02
 0.11617376609E+02 0.11177465647E+02 0.10355784222E+02 0.10950514115E+02 0.97781505025E+01
 0.84659742417E+01 0.71788335446E+01 0.60269411660E+01 0.50742476928E+01 0.43449794172E+01
 0.38392786487E+01 0.35479829641E+01 0.34618176080E+01 0.35754511681E+01 0.38892756232E+01
 0.44101477865E+01 0.51488261408E+01 0.61105496946E+01 0.72780785073E+01 0.85922684788E+01
 0.99414612449E+01 0.11140935572E+02 0.11889461412E+02 0.12034594241E+02 0.11705781917E+02
 0.11246197547E+02 0.11014066785E+02 0.11167338419E+02 0.11566118412E+02 0.11858404174E+02
 0.11696992288E+02 0.12019355473E+02 0.11396892560E+02 0.10161520121E+02 0.87283829984E+01
 0.73324957881E+01 0.60995651823E+01 0.50967717759E+01 0.43449794172E+01 0.38392847609E+01
 0.35666758876E+01 0.35163945792E+01 0.36843336397E+01 0.40745734965E+01 0.46984738193E+01
 0.55681896659E+01 0.66815488998E+01 0.79998824368E+01 0.94276252405E+01 0.10788953851E+02
 0.11708323874E+02 0.11858103741E+02 0.11246213154E+02 0.10250921278E+02 0.94461898715E+01
 0.92984212372E+01 0.99049001509E+01 0.10933799477E+02 0.11807404335E+02 0.11562230103E+02
 0.12179870425E+02 0.11686812980E+02 0.10399871872E+02 0.88637562714E+01 0.73848258998E+01
 0.60995651823E+01 0.50742476928E+01 0.43242424496E+01 0.38392944977E+01 0.36033703672E+01
 0.36055761151E+01 0.38444513910E+01 0.43286174183E+01 0.50731207769E+01 0.60877950017E+01
 0.73557732808E+01 0.88068429741E+01 0.10294805700E+02 0.11454564410E+02 0.11769650805E+02
 0.11014078806E+02 0.94462106020E+01 0.77482731458E+01 0.67207609515E+01 0.68781317075E+01
 0.81721155008E+01 0.10010018361E+02 0.90495691477E+01 0.11271489035E+02 0.12239155254E+02
 0.11827550414E+02 0.10480551471E+02 0.88637562714E+01 0.73324957881E+01 0.60269411660E+01
 0.50079662736E+01 0.42838227021E+01 0.38392892955E+01 0.36566576975E+01 0.37264790515E+01
 0.40512213835E+01 0.46442612750E+01 0.55223956152E+01 0.66881232137E+01 0.81017605177E+01
 0.96520609347E+01 0.11071051612E+02 0.11748050945E+02 0.11167329321E+02 0.92984346573E+01
 0.67207804340E+01 0.44350367434E+01 0.34174310265E+01 0.41382653912E+01 0.63151354865E+01
 0.47527721339E+01 0.83295468713E+01 0.11081230325E+02 0.12251702425E+02 0.11827550414E+02
 0.10399871872E+02 0.87283829984E+01 0.71788335446E+01 0.58861920763E+01 0.49017488615E+01
 0.42258144375E+01 0.38392567746E+01 0.37243729680E+01 0.38747175917E+01 0.42975522023E+01
 0.50103952224E+01 0.60288126444E+01 0.73422075960E+01 0.88803537123E+01 0.10473704216E+02
 0.11617386575E+02 0.11566105643E+02 0.99048910315E+01 0.68781418533E+01 0.34174428042E+01
 0.80356888623E+00 0.93406451008E-01 0.16051740713E+01 -.18432386279E+00 0.38607437693E+01
 0.80629454792E+01 0.11081230325E+02 0.12239155254E+02 0.11686812980E+02 0.10161520121E+02
 0.84659742417E+01 0.69336449757E+01 0.56860635720E+01 0.47617689233E+01 0.41532947098E+01
 0.38392032533E+01 0.38035708493E+01 0.40442270802E+01 0.45734618813E+01 0.54114635716E+01
 0.65688759654E+01 0.80163869391E+01 0.96474912630E+01 0.11177490977E+02 0.11858411718E+02
 0.10933788459E+02 0.81721089802E+01 0.41382683870E+01 0.93406529305E-01 -.24932610858E+01
 -.26082400471E+01 -.41236018659E+01 -.83013029942E+00 0.38607437693E+01 0.83295468713E+01
 0.11271489035E+02 0.12179870425E+02 0.11396892560E+02 0.97781505025E+01 0.80928838262E+01
 0.66126137718E+01 0.54389804193E+01 0.45961926496E+01 0.40701844052E+01 0.38391525523E+01
 0.38905551555E+01 0.42272555331E+01 0.48660742141E+01 0.58276938719E+01 0.71140020556E+01
 0.86726009721E+01 0.10355798197E+02 0.11697010789E+02 0.11807407854E+02 0.10010013181E+02
 0.63151332074E+01 0.16051684617E+01 -.26082515003E+01 -.47987807996E+01 -.41235368566E+01
 -.30770984223E+01 0.33655945903E+00 0.48468482400E+01 0.89039023522E+01 0.11353442210E+02
 0.11847169307E+02 0.10827099874E+02 0.91584975296E+01 0.75073597197E+01 0.60881693564E+01
 0.49828516702E+01 0.42041684108E+01 0.37333138565E+01 0.35479067512E+01 0.36369856909E+01
 0.40059163953E+01 0.46738265216E+01 0.56619979029E+01 0.69697284233E+01 0.85386585794E+01
 0.10210468571E+02 0.11473431003E+02 0.11453218270E+02 0.95518421894E+01 0.58824192233E+01
 0.13971902934E+01 -.24083935045E+01 -.30771131967E+01 -.41235457221E+01 -.24083983475E+01
 0.13971749424E+01 0.58823953585E+01 0.95518213397E+01 0.11453197070E+02 0.11473402712E+02
 0.10210446399E+02 0.85386570586E+01 0.69697338275E+01 0.56619883136E+01 0.46738089520E+01
 0.40059121901E+01 0.36369920756E+01 0.35479069023E+01 0.37333132306E+01 0.42041850314E+01
 0.49828790578E+01 0.60881845002E+01 0.75073617288E+01 0.91585056214E+01 0.10827119078E+02
 0.11847189084E+02 0.11353461932E+02 0.89039273130E+01 0.48468674477E+01 0.33655765533E+00
 0.45688230768E+00 -.22806225906E+01 -.26081981185E+01 -.42881631932E+00 0.33821134083E+01
 0.74042160848E+01 0.10324913551E+02 0.11468812725E+02 0.10960861728E+02 0.95027957292E+01
 0.78785394955E+01 0.64194305217E+01 0.52414529968E+01 0.43802251253E+01 0.38270740655E+01
 0.35606942903E+01 0.35666212359E+01 0.38453383312E+01 0.44124986099E+01 0.52917810863E+01
 0.64971329064E+01 0.80023940515E+01 0.97041510825E+01 0.11326772380E+02 0.12121245223E+02
 0.11303015125E+02 0.86080459272E+01 0.45763841506E+01 0.51603302109E+01 0.17421227760E+01
 -.19032170630E+00 0.93431102377E-01 0.24269723300E+01 0.58388380222E+01 0.90305464485E+01
 0.10969142993E+02 0.11284163243E+02 0.10301017765E+02 0.87501245497E+01 0.72128228111E+01
 0.58851626819E+01 0.48475055902E+01 0.41158921300E+01 0.36756846998E+01 0.35078450519E+01
 0.36033545879E+01 0.39679943896E+01 0.46205773054E+01 0.55839813302E+01 0.68654597336E+01
 0.84256094639E+01 0.10144154284E+02 0.11698954581E+02 0.12338224069E+02 0.11400205107E+02
 0.87882225943E+01 0.94219759661E+01 0.64692142404E+01 0.39073386274E+01 0.27460435495E+01
 0.34174372737E+01 0.55680264335E+01 0.82489483045E+01 0.10389134016E+02 0.11283222076E+02
 0.10844668934E+02 0.95310822755E+01 0.79957788614E+01 0.65747928704E+01 0.53925968954E+01
 0.44979568306E+01 0.38921379033E+01 0.35581147974E+01 0.34808182894E+01 0.36566897108E+01
 0.40956297404E+01 0.48177081707E+01 0.58429437331E+01 0.71708014403E+01 0.87503546370E+01
 0.10450862778E+02 0.11936809205E+02 0.12517076781E+02 0.11667672302E+02 0.12040102804E+02
 0.10345367498E+02 0.81932433647E+01 0.64817243751E+01 0.59311100141E+01 0.67207499694E+01
 0.84071691642E+01 0.10167058288E+02 0.11217512137E+02 0.11175589695E+02 0.10177842377E+02
 0.87287268312E+01 0.72766976242E+01 0.59941424240E+01 0.49629260994E+01 0.42067362220E+01
 0.37174812270E+01 0.34789042018E+01 0.34808270543E+01 0.37244497581E+01 0.42221539062E+01
 0.49932409858E+01 0.60531474184E+01 0.73933466446E+01 0.89543589804E+01 0.10602556772E+02
 0.12027402243E+02 0.12637896377E+02 0.12645994453E+02 0.12385567128E+02 0.11305072601E+02
 0.99348756169E+01 0.89415896236E+01 0.87784399215E+01 0.94461656817E+01 0.10504967573E+02
 0.11324860463E+02 0.11420827565E+02 0.10682216937E+02 0.93849520605E+01 0.79592918257E+01
 0.66269139245E+01 0.54952622179E+01 0.46121319513E+01 0.39836967665E+01 0.35976270718E+01
 0.34407513461E+01 0.35078667445E+01 0.38036770639E+01 0.43412063137E+01 0.51371251843E+01
 0.62011314397E+01 0.75174019146E+01 0.90216607507E+01 0.10584740908E+02 0.11950065137E+02
 0.11684403244E+02 0.12473952997E+02 0.12552233219E+02 0.12038140976E+02 0.11322582671E+02
 0.10848272272E+02 0.10855010085E+02 0.11246166707E+02 0.11656409642E+02 0.11673441400E+02
 0.11075059455E+02 0.99444542055E+01 0.85946409932E+01 0.72642201544E+01 0.60751955173E+01
 0.50964436030E+01 0.43510380644E+01 0.38349440448E+01 0.35357441710E+01 0.34446277929E+01
 0.35607169983E+01 0.38906666833E+01 0.44464001675E+01 0.52405328663E+01 0.62766033888E+01
 0.75329835031E+01 0.89446214796E+01 0.10392714372E+02 0.10034686422E+02 0.11224454676E+02
 0.12072395831E+02 0.12422392776E+02 0.12350872898E+02 0.12107883211E+02 0.11948271893E+02
 0.11965234593E+02 0.12034557603E+02 0.11903205459E+02 0.11360822938E+02 0.10382962892E+02
 0.91537334144E+01 0.78777222964E+01 0.66797100809E+01 0.56437967623E+01 0.48100854216E+01
 0.41860297690E+01 0.37635259143E+01 0.35328984392E+01 0.34899565890E+01 0.36370014986E+01
 0.39810911083E+01 0.45316850339E+01 0.52965829892E+01 0.62735579230E+01 0.74372684508E+01
 0.87256746671E+01 0.83781732585E+01 0.95321263683E+01 0.10592041717E+02 0.11436556944E+02
 0.11953826132E+02 0.12170795636E+02 0.12217245376E+02 0.12210494482E+02 0.12160521783E+02
 0.11962584544E+02 0.11480751143E+02 0.10662255293E+02 0.95992041065E+01 0.84342133692E+01
 0.72820089249E+01 0.62349354227E+01 0.53484659309E+01 0.46436677164E+01 0.41201464733E+01
 0.37702418943E+01 0.35884906218E+01 0.35747894588E+01 0.37332991892E+01 0.40702315251E+01
 0.45918261177E+01 0.53011009763E+01 0.61912235015E+01 0.72355471419E+01 0.69412512539E+01
 0.79257226131E+01 0.89185767797E+01 0.98396760714E+01 0.10617816993E+02 0.11194745267E+02
 0.11557825810E+02 0.11749081309E+02 0.11799368841E+02 0.11684227947E+02 0.11339793751E+02
 0.10726485331E+02 0.98837430941E+01 0.88927080805E+01 0.78494700680E+01 0.68465905817E+01
 0.59513523416E+01 0.51993343331E+01 0.46010505573E+01 0.41541784436E+01 0.38543183739E+01
 0.37005590248E+01 0.36959279061E+01 0.38452913356E+01 0.41532959865E+01 0.46229338993E+01
 0.52532578800E+01 0.60345584646E+01 0.58140364897E+01 0.65747872433E+01 0.73997827050E+01
 0.82360035728E+01 0.90243538308E+01 0.97132456381E+01 0.10269332201E+02 0.10676144865E+02
 0.10925021184E+02 0.11002415545E+02 0.10879059834E+02 0.10530398804E+02 0.99598840577E+01
 0.92068787130E+01 0.83424435257E+01 0.74493961138E+01 0.66001088792E+01 0.58431143353E+01
 0.52020792974E+01 0.46836028779E+01 0.42874127523E+01 0.40137340712E+01 0.38658453668E+01
 0.38489508023E+01 0.39679207999E+01 0.42257719170E+01 0.46229272321E+01 0.51558912114E+01
 0.50153536365E+01 0.55446221440E+01 0.61612519586E+01 0.68359223626E+01 0.75295887437E+01
 0.81995574542E+01 0.88078807585E+01 0.93265147050E+01 0.97350238707E+01 0.10012697576E+02
 0.10132893207E+02 0.10067034634E+02 0.97980940704E+01 0.93349150843E+01 0.87170281312E+01
 0.80060623865E+01 0.72687030953E+01 0.65605164245E+01 0.59177844315E+01 0.53587538120E+01
 0.48907324739E+01 0.45177568980E+01 0.42450604931E+01 0.40795795578E+01 0.40281395706E+01
 0.40955432473E+01 0.42837471979E+01 0.45918053535E+01 0.45316486858E+01 0.48408598648E+01
 0.52440821543E+01 0.57274852951E+01 0.62696010112E+01 0.68423598844E+01 0.74151429734E+01
 0.79596735988E+01 0.84520436969E+01 0.88699685608E+01 0.91878134311E+01 0.93750989427E+01
 0.94024460493E+01 0.92530639190E+01 0.89328728402E+01 0.84725395692E+01 0.79197897695E+01
 0.73261993773E+01 0.67352416293E+01 0.61766381664E+01 0.56678310618E+01 0.52195451407E+01
 0.48411173866E+01 0.45428039446E+01 0.43350213217E+01 0.42263380531E+01 0.42220709163E+01
 0.43241486105E+01 0.43448812283E+01 0.44463480250E+01 0.46434556686E+01 0.49309952877E+01
 0.52991389547E+01 0.57324950029E+01 0.62109978416E+01 0.67126734097E+01 0.72164739435E+01
 0.77026355862E+01 0.81497386942E+01 0.85309366117E+01 0.88136700772E+01 0.89653863239E+01
 0.89634252640E+01 0.88038279605E+01 0.85039980815E+01 0.80976196858E+01 0.76245555787E+01
 0.71209604362E+01 0.66141319126E+01 0.61232615617E+01 0.56635950766E+01 0.52501177002E+01
 0.48983930919E+01 0.46228990969E+01 0.44348419891E+01 0.43411407142E+01 0.44463594974E+01
 0.43448881337E+01 0.43411415311E+01 0.44348470170E+01 0.46229115729E+01 0.48984078575E+01
 0.52501345542E+01 0.56636151355E+01 0.61232751019E+01 0.66141296189E+01 0.71209523680E+01
 0.76245587669E+01 0.80976315324E+01 0.85040029672E+01 0.88038248533E+01 0.89634255045E+01
 0.89653881763E+01 0.88136606808E+01 0.85309182083E+01 0.81497284077E+01 0.77026376568E+01
 0.72164741620E+01 0.67126627829E+01 0.62109817060E+01 0.57324780668E+01 0.52991211652E+01
 0.49309830748E+01 0.46434578543E+01 0.48408678399E+01 0.45316694114E+01 0.43241670119E+01
 0.42220839025E+01 0.42263513727E+01 0.43350335085E+01 0.45428118652E+01 0.48411285253E+01
 0.52195647533E+01 0.56678464221E+01 0.61766359061E+01 0.67352312171E+01 0.73261982926E+01
 0.79197952868E+01 0.84725377984E+01 0.89328659457E+01 0.92530635277E+01 0.94024472726E+01
 0.93750866627E+01 0.91877899608E+01 0.88699511704E+01 0.84520376788E+01 0.79596691857E+01
 0.74151353283E+01 0.68423518334E+01 0.62695903694E+01 0.57274696574E+01 0.52440720481E+01
 0.55446171760E+01 0.50153663170E+01 0.45918300542E+01 0.42837709918E+01 0.40955651461E+01
 0.40281608833E+01 0.40795914753E+01 0.42450600951E+01 0.45177594540E+01 0.48907482414E+01
 0.53587685182E+01 0.59177825560E+01 0.65605070476E+01 0.72687014170E+01 0.80060625795E+01
 0.87170178987E+01 0.93349015646E+01 0.97980904089E+01 0.10067033691E+02 0.10132879050E+02
 0.10012672717E+02 0.97350030095E+01 0.93265013992E+01 0.88078704339E+01 0.81995525887E+01
 0.75295913571E+01 0.68359226051E+01 0.61612433577E+01 0.65747885697E+01 0.58140398550E+01
 0.51559078770E+01 0.46229499149E+01 0.42257934083E+01 0.39679461812E+01 0.38489776220E+01
 0.38658565660E+01 0.40137262676E+01 0.42874073467E+01 0.46836129982E+01 0.52020898960E+01
 0.58431112545E+01 0.66001021916E+01 0.74493962598E+01 0.83424393152E+01 0.92068598014E+01
 0.99598629409E+01 0.10530389478E+02 0.10879054218E+02 0.11002400447E+02 0.10925000337E+02
 0.10676126895E+02 0.10269315406E+02 0.97132306575E+01 0.90243519763E+01 0.82360168278E+01
 0.73997946656E+01 0.79257428078E+01 0.69412622946E+01 0.60345719634E+01 0.52532776198E+01
 0.46229495032E+01 0.41533085969E+01 0.38453141740E+01 0.36959554917E+01 0.37005678862E+01
 0.38543056971E+01 0.41541684563E+01 0.46010548261E+01 0.51993375078E+01 0.59513455344E+01
 0.68465860495E+01 0.78494719250E+01 0.88926999746E+01 0.98837179087E+01 0.10726459149E+02
 0.11339778527E+02 0.11684216113E+02 0.11799354365E+02 0.11749070133E+02 0.11557817461E+02
 0.11194730567E+02 0.10617801303E+02 0.98396781547E+01 0.89185978224E+01 0.95321501986E+01
 0.83781950063E+01 0.72355645310E+01 0.61912461829E+01 0.53011219904E+01 0.45918317584E+01
 0.40702319520E+01 0.37333145175E+01 0.35748117592E+01 0.35884945190E+01 0.37702273728E+01
 0.41201362658E+01 0.46436670029E+01 0.53484598682E+01 0.62349231243E+01 0.72820045247E+01
 0.84342144926E+01 0.95991925457E+01 0.10662229022E+02 0.11480726013E+02 0.11962566313E+02
 0.12160504766E+02 0.12210483153E+02 0.12217247879E+02 0.12170801226E+02 0.11953818857E+02
 0.11436546044E+02 0.10592048981E+02 0.11224467773E+02 0.10034707297E+02 0.87256905127E+01
 0.74372867660E+01 0.62735856366E+01 0.52966022387E+01 0.45316804808E+01 0.39810801550E+01
 0.36370066359E+01 0.34899680159E+01 0.35328947781E+01 0.37635120399E+01 0.41860226380E+01
 0.48100809294E+01 0.56437821952E+01 0.66796928515E+01 0.78777160257E+01 0.91537305633E+01
 0.10382948922E+02 0.11360802437E+02 0.11903189302E+02 0.12034541840E+02 0.11965216501E+02
 0.11948266933E+02 0.12107900185E+02 0.12350892336E+02 0.12422395920E+02 0.12072394658E+02
 0.12473963692E+02 0.11684421284E+02 0.10392727502E+02 0.89446259723E+01 0.75329970765E+01
 0.62766295727E+01 0.52405464423E+01 0.44463875267E+01 0.38906485387E+01 0.35607119759E+01
 0.34446251471E+01 0.35357318055E+01 0.38349321991E+01 0.43510348673E+01 0.50964363535E+01
 0.60751759892E+01 0.72642015004E+01 0.85946323640E+01 0.99444453631E+01 0.11075045203E+02
 0.11673433094E+02 0.11656409230E+02 0.11246159618E+02 0.10854997137E+02 0.10848276700E+02
 0.11322611084E+02 0.12038169376E+02 0.12552246109E+02 0.12385585454E+02 0.12646015021E+02
 0.11950085260E+02 0.10584743843E+02 0.90216524263E+01 0.75174066707E+01 0.62011490128E+01
 0.51371294204E+01 0.43411891155E+01 0.38036573847E+01 0.35078538462E+01 0.34407351270E+01
 0.35976074331E+01 0.39836873155E+01 0.46121310542E+01 0.54952529923E+01 0.66268949907E+01
 0.79592773605E+01 0.93849427631E+01 0.10682202837E+02 0.11420816206E+02 0.11324868087E+02
 0.10504985680E+02 0.94461717574E+01 0.87784382191E+01 0.89416048936E+01 0.99349091725E+01
 0.11305101710E+02 0.10345388523E+02 0.12040120089E+02 0.12637920927E+02 0.12027420032E+02
 0.10602549992E+02 0.89543407748E+01 0.73933413018E+01 0.60531511214E+01 0.49932339046E+01
 0.42221359699E+01 0.37244334139E+01 0.34808097865E+01 0.34788787815E+01 0.37174585989E+01
 0.42067291375E+01 0.49629245876E+01 0.59941320389E+01 0.72766851319E+01 0.87287222200E+01
 0.10177835816E+02 0.11175574148E+02 0.11217507243E+02 0.10167081375E+02 0.84072029749E+01
 0.67207698564E+01 0.59311228164E+01 0.64817491109E+01 0.81932741616E+01 0.64692350610E+01
 0.94219827078E+01 0.11667682248E+02 0.12517097360E+02 0.11936819932E+02 0.10450849331E+02
 0.87503325903E+01 0.71707876629E+01 0.58429320393E+01 0.48176906570E+01 0.40956142491E+01
 0.36566791834E+01 0.34808002813E+01 0.35580873181E+01 0.38921185214E+01 0.44979523704E+01
 0.53925923852E+01 0.65747825403E+01 0.79957769620E+01 0.95310908554E+01 0.10844668837E+02
 0.11283210828E+02 0.10389138368E+02 0.82489819381E+01 0.55680678966E+01 0.34174668636E+01
 0.27460692622E+01 0.39073681792E+01 0.17421500315E+01 0.51603366621E+01 0.87882136752E+01
 0.11400203907E+02 0.12338233441E+02 0.11698954856E+02 0.10144138631E+02 0.84255903031E+01
 0.68654412904E+01 0.55839571898E+01 0.46205534411E+01 0.39679834561E+01 0.36033496423E+01
 0.35078292622E+01 0.36756629528E+01 0.41158822614E+01 0.48475046261E+01 0.58851548893E+01
 0.72128143468E+01 0.87501342271E+01 0.10301038858E+02 0.11284171890E+02 0.10969141425E+02
 0.90305606709E+01 0.58388740233E+01 0.24270104852E+01 0.93462436729E-01 -.19028976093E+00
 -.22805943288E+01 0.45689965437E+00 0.45763759253E+01 0.86080252127E+01 0.11303002801E+02
 0.12121239524E+02 0.11326761568E+02 0.97041376404E+01 0.80023826958E+01 0.64971142527E+01
 0.52917511661E+01 0.44124748638E+01 0.38453330277E+01 0.35666198203E+01 0.35606826694E+01
 0.38270640755E+01 0.43802288517E+01 0.52414568131E+01 0.64194218209E+01 0.78785350881E+01
 0.95028143725E+01 0.10960890365E+02 0.11468829531E+02 0.10324924156E+02 0.74042377666E+01
 0.33821426986E+01 -.42879175850E+00 -.26081743261E+01 -.18416727596E+00 0.45699547354E+00
 0.30929340946E+01 0.67021309630E+01 0.99628979509E+01 0.11853432756E+02 0.12043498835E+02
 0.10910280237E+02 0.92240030468E+01 0.75690213687E+01 0.61395880333E+01 0.50142550975E+01
 0.42058371505E+01 0.36960177711E+01 0.34618139108E+01 0.34900061720E+01 0.37822866583E+01
 0.43542021614E+01 0.52267781155E+01 0.64071457397E+01 0.78579866640E+01 0.94644368799E+01
 0.10909112000E+02 0.11462580653E+02 0.10502556323E+02 0.79665268611E+01 0.45269476944E+01
 0.13972734296E+01 0.33666187272E+00 -.82996080280E+00 0.33666566761E+00 0.33647947651E+01
 0.70728997864E+01 0.10135504568E+02 0.11665963893E+02 0.11521530390E+02 0.10219902853E+02
 0.85532082625E+01 0.69874525588E+01 0.56735696824E+01 0.46694536933E+01 0.39768464184E+01
 0.35748672203E+01 0.34434430021E+01 0.35748589266E+01 0.39768454149E+01 0.46694575473E+01
 0.56735588315E+01 0.69874277018E+01 0.85531939485E+01 0.10219908834E+02 0.11521539725E+02
 0.11665964592E+02 0.10135504268E+02 0.70729035650E+01 0.33647954394E+01 0.30929318300E+01
 0.45699082914E+00 -.18416658709E+00 0.13972733622E+01 0.45269423714E+01 0.79665271077E+01