   2   2   0   0
  0.1529437E+02  0.3691622E-09  0.3691622E-09  0.3691622E-09  0.5000000E-15
  1.000000000000000E-004
  CAR 
 unknown system                          
     23.81087769     -6.55643236  301      9.03995564      1.00000000
     -6.556  0.0000E+00  0.0000E+00
     -6.455  0.0000E+00  0.0000E+00
     -6.354  0.0000E+00  0.0000E+00
     -6.253  0.0000E+00  0.0000E+00
     -6.152  0.0000E+00  0.0000E+00
     -6.050  0.0000E+00  0.0000E+00
     -5.949  0.0000E+00  0.0000E+00
     -5.848  0.0000E+00  0.0000E+00
     -5.747  0.0000E+00  0.0000E+00
     -5.645  0.3568E-16  0.3612E-17
     -5.544  0.7499E-14  0.7627E-15
     -5.443  0.9521E-12  0.9714E-13
     -5.342  0.7314E-10  0.7501E-11
     -5.241  0.3405E-08  0.3522E-09
     -5.139  0.9627E-07  0.1010E-07
     -5.038  0.1659E-05  0.1780E-06
     -4.937  0.1751E-04  0.1950E-05
     -4.836  0.1144E-03  0.1353E-04
     -4.734  0.4743E-03  0.6154E-04
     -4.633  0.1322E-02  0.1954E-03
     -4.532  0.2776E-02  0.4764E-03
     -4.431  0.4968E-02  0.9793E-03
     -4.329  0.7630E-02  0.1752E-02
     -4.228  0.9337E-02  0.2697E-02
     -4.127  0.9204E-02  0.3628E-02
     -4.026  0.8948E-02  0.4534E-02
     -3.925  0.1092E-01  0.5640E-02
     -3.823  0.1440E-01  0.7098E-02
     -3.722  0.1607E-01  0.8725E-02
     -3.621  0.1542E-01  0.1029E-01
     -3.520  0.1497E-01  0.1180E-01
     -3.418  0.1515E-01  0.1334E-01
     -3.317  0.1552E-01  0.1491E-01
     -3.216  0.1679E-01  0.1661E-01
     -3.115  0.1853E-01  0.1848E-01
     -3.014  0.1954E-01  0.2046E-01
     -2.912  0.2040E-01  0.2252E-01
     -2.811  0.2207E-01  0.2476E-01
     -2.710  0.2184E-01  0.2697E-01
     -2.609  0.1783E-01  0.2878E-01
     -2.507  0.1518E-01  0.3031E-01
     -2.406  0.1969E-01  0.3231E-01
     -2.305  0.2860E-01  0.3520E-01
     -2.204  0.3290E-01  0.3853E-01
     -2.103  0.2977E-01  0.4154E-01
     -2.001  0.2501E-01  0.4407E-01
     -1.900  0.2211E-01  0.4631E-01
     -1.799  0.2002E-01  0.4834E-01
     -1.698  0.1891E-01  0.5025E-01
     -1.596  0.1990E-01  0.5227E-01
     -1.495  0.2283E-01  0.5458E-01
     -1.394  0.2829E-01  0.5744E-01
     -1.293  0.3541E-01  0.6103E-01
     -1.192  0.3799E-01  0.6487E-01
     -1.090  0.3300E-01  0.6821E-01
     -0.989  0.2725E-01  0.7097E-01
     -0.888  0.2766E-01  0.7377E-01
     -0.787  0.3258E-01  0.7707E-01
     -0.685  0.3607E-01  0.8072E-01
     -0.584  0.3577E-01  0.8434E-01
     -0.483  0.3251E-01  0.8763E-01
     -0.382  0.2701E-01  0.9037E-01
     -0.281  0.2154E-01  0.9255E-01
     -0.179  0.1999E-01  0.9457E-01
     -0.078  0.2422E-01  0.9702E-01
      0.023  0.3291E-01  0.1004E+00
      0.124  0.4278E-01  0.1047E+00
      0.226  0.4852E-01  0.1096E+00
      0.327  0.4615E-01  0.1143E+00
      0.428  0.4005E-01  0.1183E+00
      0.529  0.3822E-01  0.1222E+00
      0.630  0.4059E-01  0.1263E+00
      0.732  0.4039E-01  0.1304E+00
      0.833  0.3556E-01  0.1340E+00
      0.934  0.3223E-01  0.1372E+00
      1.035  0.3441E-01  0.1407E+00
      1.137  0.3949E-01  0.1447E+00
      1.238  0.4486E-01  0.1493E+00
      1.339  0.4724E-01  0.1541E+00
      1.440  0.4387E-01  0.1585E+00
      1.542  0.3941E-01  0.1625E+00
      1.643  0.3819E-01  0.1663E+00
      1.744  0.3698E-01  0.1701E+00
      1.845  0.3567E-01  0.1737E+00
      1.946  0.3926E-01  0.1777E+00
      2.048  0.4453E-01  0.1822E+00
      2.149  0.4306E-01  0.1865E+00
      2.250  0.3614E-01  0.1902E+00
      2.351  0.3107E-01  0.1933E+00
      2.453  0.2975E-01  0.1964E+00
      2.554  0.3002E-01  0.1994E+00
      2.655  0.3071E-01  0.2025E+00
      2.756  0.3176E-01  0.2057E+00
      2.857  0.3224E-01  0.2090E+00
      2.959  0.3160E-01  0.2122E+00
      3.060  0.3318E-01  0.2155E+00
      3.161  0.4035E-01  0.2196E+00
      3.262  0.5030E-01  0.2247E+00
      3.364  0.5804E-01  0.2306E+00
      3.465  0.6076E-01  0.2367E+00
      3.566  0.5678E-01  0.2425E+00
      3.667  0.4805E-01  0.2474E+00
      3.768  0.4045E-01  0.2514E+00
      3.870  0.3708E-01  0.2552E+00
      3.971  0.3632E-01  0.2589E+00
      4.072  0.3572E-01  0.2625E+00
      4.173  0.3356E-01  0.2659E+00
      4.275  0.3087E-01  0.2690E+00
      4.376  0.3250E-01  0.2723E+00
      4.477  0.3991E-01  0.2763E+00
      4.578  0.4777E-01  0.2812E+00
      4.679  0.5336E-01  0.2866E+00
      4.781  0.6019E-01  0.2927E+00
      4.882  0.6716E-01  0.2995E+00
      4.983  0.6827E-01  0.3064E+00
      5.084  0.6410E-01  0.3129E+00
      5.186  0.5845E-01  0.3188E+00
      5.287  0.4925E-01  0.3238E+00
      5.388  0.3660E-01  0.3275E+00
      5.489  0.2948E-01  0.3305E+00
      5.590  0.3357E-01  0.3339E+00
      5.692  0.4442E-01  0.3384E+00
      5.793  0.5612E-01  0.3440E+00
      5.894  0.6626E-01  0.3507E+00
      5.995  0.7243E-01  0.3581E+00
      6.097  0.7113E-01  0.3653E+00
      6.198  0.6347E-01  0.3717E+00
      6.299  0.5553E-01  0.3773E+00
      6.400  0.5145E-01  0.3825E+00
      6.502  0.5288E-01  0.3879E+00
      6.603  0.5850E-01  0.3938E+00
      6.704  0.6393E-01  0.4003E+00
      6.805  0.6537E-01  0.4069E+00
      6.906  0.6266E-01  0.4132E+00
      7.008  0.6056E-01  0.4194E+00
      7.109  0.6211E-01  0.4257E+00
      7.210  0.6672E-01  0.4324E+00
      7.311  0.7354E-01  0.4398E+00
      7.413  0.7673E-01  0.4476E+00
      7.514  0.7044E-01  0.4547E+00
      7.615  0.6003E-01  0.4608E+00
      7.716  0.5458E-01  0.4663E+00
      7.817  0.5639E-01  0.4721E+00
      7.919  0.5911E-01  0.4780E+00
      8.020  0.5508E-01  0.4836E+00
      8.121  0.4760E-01  0.4884E+00
      8.222  0.4567E-01  0.4931E+00
      8.324  0.4990E-01  0.4981E+00
      8.425  0.5430E-01  0.5036E+00
      8.526  0.5505E-01  0.5092E+00
      8.627  0.5161E-01  0.5144E+00
      8.728  0.4549E-01  0.5190E+00
      8.830  0.4159E-01  0.5232E+00
      8.931  0.4457E-01  0.5277E+00
      9.032  0.5124E-01  0.5329E+00
      9.133  0.5280E-01  0.5383E+00
      9.235  0.4551E-01  0.5429E+00
      9.336  0.3488E-01  0.5464E+00
      9.437  0.2942E-01  0.5494E+00
      9.538  0.3392E-01  0.5528E+00
      9.639  0.4529E-01  0.5574E+00
      9.741  0.5463E-01  0.5629E+00
      9.842  0.5674E-01  0.5687E+00
      9.943  0.5444E-01  0.5742E+00
     10.044  0.5373E-01  0.5796E+00
     10.146  0.5518E-01  0.5852E+00
     10.247  0.5300E-01  0.5906E+00
     10.348  0.4493E-01  0.5951E+00
     10.449  0.3602E-01  0.5988E+00
     10.550  0.3336E-01  0.6021E+00
     10.652  0.3959E-01  0.6061E+00
     10.753  0.4887E-01  0.6111E+00
     10.854  0.5355E-01  0.6165E+00
     10.955  0.5329E-01  0.6219E+00
     11.057  0.5267E-01  0.6272E+00
     11.158  0.5462E-01  0.6328E+00
     11.259  0.5934E-01  0.6388E+00
     11.360  0.6733E-01  0.6456E+00
     11.462  0.7687E-01  0.6534E+00
     11.563  0.7997E-01  0.6615E+00
     11.664  0.7387E-01  0.6689E+00
     11.765  0.6676E-01  0.6757E+00
     11.866  0.6383E-01  0.6822E+00
     11.968  0.6317E-01  0.6886E+00
     12.069  0.6237E-01  0.6949E+00
     12.170  0.6179E-01  0.7011E+00
     12.271  0.6463E-01  0.7077E+00
     12.373  0.7027E-01  0.7148E+00
     12.474  0.7274E-01  0.7221E+00
     12.575  0.6978E-01  0.7292E+00
     12.676  0.6485E-01  0.7358E+00
     12.777  0.6272E-01  0.7421E+00
     12.879  0.6521E-01  0.7487E+00
     12.980  0.6854E-01  0.7557E+00
     13.081  0.6957E-01  0.7627E+00
     13.182  0.6891E-01  0.7697E+00
     13.284  0.6619E-01  0.7764E+00
     13.385  0.6129E-01  0.7826E+00
     13.486  0.5549E-01  0.7882E+00
     13.587  0.5065E-01  0.7933E+00
     13.688  0.5181E-01  0.7986E+00
     13.790  0.6236E-01  0.8049E+00
     13.891  0.7538E-01  0.8125E+00
     13.992  0.7934E-01  0.8205E+00
     14.093  0.7347E-01  0.8280E+00
     14.195  0.6867E-01  0.8349E+00
     14.296  0.7258E-01  0.8423E+00
     14.397  0.8389E-01  0.8508E+00
     14.498  0.9583E-01  0.8605E+00
     14.599  0.9796E-01  0.8704E+00
     14.701  0.8589E-01  0.8791E+00
     14.802  0.6930E-01  0.8861E+00
     14.903  0.6017E-01  0.8922E+00
     15.004  0.5861E-01  0.8981E+00
     15.106  0.5856E-01  0.9040E+00
     15.207  0.5809E-01  0.9099E+00
     15.308  0.6045E-01  0.9160E+00
     15.409  0.6775E-01  0.9229E+00
     15.510  0.7512E-01  0.9305E+00
     15.612  0.7452E-01  0.9380E+00
     15.713  0.6402E-01  0.9445E+00
     15.814  0.5053E-01  0.9496E+00
     15.915  0.4119E-01  0.9538E+00
     16.017  0.3793E-01  0.9577E+00
     16.118  0.3993E-01  0.9617E+00
     16.219  0.4434E-01  0.9662E+00
     16.320  0.4741E-01  0.9710E+00
     16.421  0.4861E-01  0.9759E+00
     16.523  0.5058E-01  0.9810E+00
     16.624  0.5326E-01  0.9864E+00
     16.725  0.5318E-01  0.9918E+00
     16.826  0.4970E-01  0.9968E+00
     16.928  0.4615E-01  0.1002E+01
     17.029  0.4650E-01  0.1006E+01
     17.130  0.5106E-01  0.1011E+01
     17.231  0.5433E-01  0.1017E+01
     17.333  0.5146E-01  0.1022E+01
     17.434  0.4364E-01  0.1027E+01
     17.535  0.3386E-01  0.1030E+01
     17.636  0.2313E-01  0.1032E+01
     17.737  0.1321E-01  0.1034E+01
     17.839  0.8208E-02  0.1034E+01
     17.940  0.1055E-01  0.1036E+01
     18.041  0.1810E-01  0.1037E+01
     18.142  0.2566E-01  0.1040E+01
     18.244  0.2833E-01  0.1043E+01
     18.345  0.2495E-01  0.1045E+01
     18.446  0.1859E-01  0.1047E+01
     18.547  0.1301E-01  0.1049E+01
     18.648  0.9895E-02  0.1050E+01
     18.750  0.8475E-02  0.1050E+01
     18.851  0.7307E-02  0.1051E+01
     18.952  0.6287E-02  0.1052E+01
     19.053  0.6510E-02  0.1052E+01
     19.155  0.9002E-02  0.1053E+01
     19.256  0.1309E-01  0.1055E+01
     19.357  0.1548E-01  0.1056E+01
     19.458  0.1396E-01  0.1058E+01
     19.559  0.1044E-01  0.1059E+01
     19.661  0.7276E-02  0.1059E+01
     19.762  0.4692E-02  0.1060E+01
     19.863  0.2506E-02  0.1060E+01
     19.964  0.1360E-02  0.1060E+01
     20.066  0.1963E-02  0.1060E+01
     20.167  0.4288E-02  0.1061E+01
     20.268  0.7223E-02  0.1062E+01
     20.369  0.9136E-02  0.1063E+01
     20.470  0.9072E-02  0.1064E+01
     20.572  0.7273E-02  0.1064E+01
     20.673  0.4720E-02  0.1065E+01
     20.774  0.2363E-02  0.1065E+01
     20.875  0.8471E-03  0.1065E+01
     20.977  0.2805E-03  0.1065E+01
     21.078  0.4483E-03  0.1065E+01
     21.179  0.1283E-02  0.1065E+01
     21.280  0.2434E-02  0.1065E+01
     21.381  0.2887E-02  0.1066E+01
     21.483  0.2171E-02  0.1066E+01
     21.584  0.1205E-02  0.1066E+01
     21.685  0.9754E-03  0.1066E+01
     21.786  0.1335E-02  0.1066E+01
     21.888  0.1454E-02  0.1067E+01
     21.989  0.9992E-03  0.1067E+01
     22.090  0.4212E-03  0.1067E+01
     22.191  0.1086E-03  0.1067E+01
     22.293  0.1709E-04  0.1067E+01
     22.394  0.1640E-05  0.1067E+01
     22.495  0.9572E-07  0.1067E+01
     22.596  0.3395E-08  0.1067E+01
     22.697  0.7303E-10  0.1067E+01
     22.799  0.9514E-12  0.1067E+01
     22.900  0.7496E-14  0.1067E+01
     23.001  0.3568E-16  0.1067E+01
     23.102  0.0000E+00  0.1067E+01
     23.204  0.0000E+00  0.1067E+01
     23.305  0.0000E+00  0.1067E+01
     23.406  0.0000E+00  0.1067E+01
     23.507  0.0000E+00  0.1067E+01
     23.608  0.0000E+00  0.1067E+01
     23.710  0.0000E+00  0.1067E+01
     23.811  0.0000E+00  0.1067E+01
