       N       E                     dE             d eps       ncg     rms          rms(c)
DAV:   1    -0.126349870018E+01   -0.12635E+01   -0.20676E+03   992   0.376E+02
DAV:   2    -0.108919111166E+02   -0.96284E+01   -0.92044E+01  1528   0.552E+01
DAV:   3    -0.109766441190E+02   -0.84733E-01   -0.84733E-01  1128   0.657E+00
DAV:   4    -0.109768743221E+02   -0.23020E-03   -0.23020E-03  1616   0.357E-01
DAV:   5    -0.109768743582E+02   -0.36118E-07   -0.36299E-07  1104   0.423E-03    0.299E+00
DAV:   6    -0.108529198663E+02    0.12395E+00   -0.80487E-02  1128   0.147E+00    0.177E+00
DAV:   7    -0.107963344734E+02    0.56585E-01   -0.14799E-01  1224   0.212E+00    0.151E-01
DAV:   8    -0.107976186176E+02   -0.12841E-02   -0.36538E-03  1096   0.438E-01    0.246E-02
DAV:   9    -0.107977112607E+02   -0.92643E-04   -0.86147E-05   744   0.737E-02
   1 F= -.10797711E+02 E0= -.10797689E+02  d E =-.107977E+02
       N       E                     dE             d eps       ncg     rms          rms(c)
DAV:   1    -0.108063491374E+02   -0.87305E-02   -0.23988E-01  1208   0.271E+00    0.311E-01
DAV:   2    -0.108022647911E+02    0.40843E-02   -0.32254E-03  1288   0.353E-01    0.178E-01
DAV:   3    -0.108001428893E+02    0.21219E-02   -0.42829E-03  1160   0.328E-01    0.222E-02
DAV:   4    -0.108001306582E+02    0.12231E-04   -0.39447E-05   528   0.528E-02
   2 F= -.10800131E+02 E0= -.10800119E+02  d E =-.241940E-02
       N       E                     dE             d eps       ncg     rms          rms(c)
DAV:   1    -0.108032182406E+02   -0.30754E-02   -0.38142E-02  1184   0.109E+00    0.125E-01
DAV:   2    -0.108025756395E+02    0.64260E-03   -0.50702E-04  1192   0.140E-01    0.715E-02
DAV:   3    -0.108022496314E+02    0.32601E-03   -0.66410E-04   720   0.131E-01
   3 F= -.10802250E+02 E0= -.10802235E+02  d E =-.453837E-02
