<?xml version="1.0" encoding="ISO-8859-1"?>
<modeling>
 <generator>
  <i name="program" type="string">vasp </i>
  <i name="version" type="string">5.4.4.18Apr17-6-g9f103f2a35  </i>
  <i name="subversion" type="string">(build Dec 09 2018 21:25:21) complex            parallel </i>
  <i name="platform" type="string">IFC18.0.1.163_CrayMPICH7.7.0_MKL18.0.1.163 </i>
  <i name="date" type="string">2019 03 20 </i>
  <i name="time" type="string">09:49:04 </i>
 </generator>
 <incar>
  <i type="string" name="PREC">normal</i>
  <i type="int" name="IBRION">     2</i>
  <i name="EDIFF">      0.00040000</i>
  <i name="EDIFFG">     -0.01000000</i>
  <i type="int" name="NSW">    15</i>
  <i type="int" name="ISIF">     3</i>
  <i name="ENCUT">    200.00000000</i>
  <i type="int" name="NBANDS">     8</i>
  <i type="logical" name="LREAL"> F  </i>
  <i type="int" name="ISMEAR">     0</i>
  <i name="SIGMA">      0.20000000</i>
  <v type="int" name="KPOINT_BSE">    -1     0     0     0</v>
 </incar>
 <structure name="primitive_cell" >
  <crystal>
   <varray name="basis" >
    <v>       0.00000000       2.71500000       2.71500000 </v>
    <v>       2.71500000       0.00000000       2.71500000 </v>
    <v>       2.71500000       2.71500000       0.00000000 </v>
   </varray>
   <i name="volume">     40.02575175 </i>
   <varray name="rec_basis" >
    <v>      -0.18416206       0.18416206       0.18416206 </v>
    <v>       0.18416206      -0.18416206       0.18416206 </v>
    <v>       0.18416206       0.18416206      -0.18416206 </v>
   </varray>
  </crystal>
  <varray name="positions" >
   <v>      -0.50000000      -0.50000000      -0.50000000 </v>
   <v>      -0.25000000      -0.25000000      -0.25000000 </v>
  </varray>
 </structure>
 <varray name="primitive_index" >
  <v type="int" >        1 </v>
  <v type="int" >        2 </v>
 </varray>
 <kpoints>
  <generation param="Monkhorst-Pack">
   <v type="int" name="divisions">       8        8        8 </v>
   <v name="usershift">      0.00000000       0.00000000       0.00000000 </v>
   <v name="genvec1">      0.12500000       0.00000000      -0.00000000 </v>
   <v name="genvec2">      0.00000000       0.12500000       0.00000000 </v>
   <v name="genvec3">     -0.00000000      -0.00000000       0.12500000 </v>
   <v name="shift">      0.50000000       0.50000000       0.50000000 </v>
  </generation>
  <varray name="kpointlist" >
   <v>       0.06250000       0.06250000       0.06250000 </v>
   <v>       0.18750000       0.06250000       0.06250000 </v>
   <v>       0.31250000       0.06250000       0.06250000 </v>
   <v>       0.43750000       0.06250000       0.06250000 </v>
   <v>      -0.43750000       0.06250000       0.06250000 </v>
   <v>      -0.31250000       0.06250000       0.06250000 </v>
   <v>      -0.18750000       0.06250000       0.06250000 </v>
   <v>      -0.06250000       0.06250000       0.06250000 </v>
   <v>       0.18750000       0.18750000       0.06250000 </v>
   <v>       0.31250000       0.18750000       0.06250000 </v>
   <v>       0.43750000       0.18750000       0.06250000 </v>
   <v>      -0.43750000       0.18750000       0.06250000 </v>
   <v>      -0.31250000       0.18750000       0.06250000 </v>
   <v>      -0.18750000       0.18750000       0.06250000 </v>
   <v>      -0.06250000       0.18750000       0.06250000 </v>
   <v>       0.31250000       0.31250000       0.06250000 </v>
   <v>       0.43750000       0.31250000       0.06250000 </v>
   <v>      -0.43750000       0.31250000       0.06250000 </v>
   <v>      -0.31250000       0.31250000       0.06250000 </v>
   <v>      -0.18750000       0.31250000       0.06250000 </v>
   <v>      -0.06250000       0.31250000       0.06250000 </v>
   <v>       0.43750000       0.43750000       0.06250000 </v>
   <v>      -0.43750000       0.43750000       0.06250000 </v>
   <v>      -0.31250000       0.43750000       0.06250000 </v>
   <v>      -0.18750000       0.43750000       0.06250000 </v>
   <v>      -0.06250000       0.43750000       0.06250000 </v>
   <v>      -0.43750000      -0.43750000       0.06250000 </v>
   <v>      -0.31250000      -0.43750000       0.06250000 </v>
   <v>      -0.18750000      -0.43750000       0.06250000 </v>
   <v>      -0.31250000      -0.31250000       0.06250000 </v>
   <v>      -0.18750000      -0.31250000       0.06250000 </v>
   <v>      -0.18750000      -0.18750000       0.06250000 </v>
   <v>       0.18750000       0.18750000       0.18750000 </v>
   <v>       0.31250000       0.18750000       0.18750000 </v>
   <v>       0.43750000       0.18750000       0.18750000 </v>
   <v>      -0.43750000       0.18750000       0.18750000 </v>
   <v>      -0.31250000       0.18750000       0.18750000 </v>
   <v>      -0.18750000       0.18750000       0.18750000 </v>
   <v>       0.31250000       0.31250000       0.18750000 </v>
   <v>       0.43750000       0.31250000       0.18750000 </v>
   <v>      -0.43750000       0.31250000       0.18750000 </v>
   <v>      -0.31250000       0.31250000       0.18750000 </v>
   <v>      -0.18750000       0.31250000       0.18750000 </v>
   <v>       0.43750000       0.43750000       0.18750000 </v>
   <v>      -0.43750000       0.43750000       0.18750000 </v>
   <v>      -0.31250000       0.43750000       0.18750000 </v>
   <v>      -0.18750000       0.43750000       0.18750000 </v>
   <v>      -0.43750000      -0.43750000       0.18750000 </v>
   <v>      -0.31250000      -0.43750000       0.18750000 </v>
   <v>      -0.31250000      -0.31250000       0.18750000 </v>
   <v>       0.31250000       0.31250000       0.31250000 </v>
   <v>       0.43750000       0.31250000       0.31250000 </v>
   <v>      -0.43750000       0.31250000       0.31250000 </v>
   <v>      -0.31250000       0.31250000       0.31250000 </v>
   <v>       0.43750000       0.43750000       0.31250000 </v>
   <v>      -0.43750000       0.43750000       0.31250000 </v>
   <v>      -0.31250000       0.43750000       0.31250000 </v>
   <v>      -0.43750000      -0.43750000       0.31250000 </v>
   <v>       0.43750000       0.43750000       0.43750000 </v>
   <v>      -0.43750000       0.43750000       0.43750000 </v>
  </varray>
  <varray name="weights" >
   <v>       0.00390625 </v>
   <v>       0.01171875 </v>
   <v>       0.01171875 </v>
   <v>       0.01171875 </v>
   <v>       0.01171875 </v>
   <v>       0.01171875 </v>
   <v>       0.01171875 </v>
   <v>       0.01171875 </v>
   <v>       0.01171875 </v>
   <v>       0.02343750 </v>
   <v>       0.02343750 </v>
   <v>       0.02343750 </v>
   <v>       0.02343750 </v>
   <v>       0.02343750 </v>
   <v>       0.02343750 </v>
   <v>       0.01171875 </v>
   <v>       0.02343750 </v>
   <v>       0.02343750 </v>
   <v>       0.02343750 </v>
   <v>       0.02343750 </v>
   <v>       0.02343750 </v>
   <v>       0.01171875 </v>
   <v>       0.02343750 </v>
   <v>       0.02343750 </v>
   <v>       0.02343750 </v>
   <v>       0.02343750 </v>
   <v>       0.01171875 </v>
   <v>       0.02343750 </v>
   <v>       0.02343750 </v>
   <v>       0.01171875 </v>
   <v>       0.02343750 </v>
   <v>       0.01171875 </v>
   <v>       0.00390625 </v>
   <v>       0.01171875 </v>
   <v>       0.01171875 </v>
   <v>       0.01171875 </v>
   <v>       0.01171875 </v>
   <v>       0.01171875 </v>
   <v>       0.01171875 </v>
   <v>       0.02343750 </v>
   <v>       0.02343750 </v>
   <v>       0.02343750 </v>
   <v>       0.02343750 </v>
   <v>       0.01171875 </v>
   <v>       0.02343750 </v>
   <v>       0.02343750 </v>
   <v>       0.02343750 </v>
   <v>       0.01171875 </v>
   <v>       0.02343750 </v>
   <v>       0.01171875 </v>
   <v>       0.00390625 </v>
   <v>       0.01171875 </v>
   <v>       0.01171875 </v>
   <v>       0.01171875 </v>
   <v>       0.01171875 </v>
   <v>       0.02343750 </v>
   <v>       0.02343750 </v>
   <v>       0.01171875 </v>
   <v>       0.00390625 </v>
   <v>       0.01171875 </v>
  </varray>
 </kpoints>
 <parameters>
  <separator name="general" >
   <i type="string" name="SYSTEM">unknown system</i>
   <i type="logical" name="LCOMPAT"> F  </i>
  </separator>
  <separator name="electronic" >
   <i type="string" name="PREC">normal</i>
   <i name="ENMAX">    200.00000000</i>
   <i name="ENAUG">    322.06900000</i>
   <i name="EDIFF">      0.00040000</i>
   <i type="int" name="IALGO">    38</i>
   <i type="int" name="IWAVPR">    11</i>
   <i type="int" name="NBANDS">     8</i>
   <i name="NELECT">      8.00000000</i>
   <i type="int" name="TURBO">     0</i>
   <i type="int" name="IRESTART">     0</i>
   <i type="int" name="NREBOOT">     0</i>
   <i type="int" name="NMIN">     0</i>
   <i name="EREF">      0.00000000</i>
   <separator name="electronic smearing" >
    <i type="int" name="ISMEAR">     0</i>
    <i name="SIGMA">      0.20000000</i>
    <i name="KSPACING">      0.50000000</i>
    <i type="logical" name="KGAMMA"> T  </i>
   </separator>
   <separator name="electronic projectors" >
    <i type="logical" name="LREAL"> F  </i>
    <v name="ROPT">      0.00000000</v>
    <i type="int" name="LMAXPAW">  -100</i>
    <i type="int" name="LMAXMIX">     2</i>
    <i type="logical" name="NLSPLINE"> F  </i>
   </separator>
   <separator name="electronic startup" >
    <i type="int" name="ISTART">     0</i>
    <i type="int" name="ICHARG">     2</i>
    <i type="int" name="INIWAV">     1</i>
   </separator>
   <separator name="electronic spin" >
    <i type="int" name="ISPIN">     1</i>
    <i type="logical" name="LNONCOLLINEAR"> F  </i>
    <v name="MAGMOM">      1.00000000      1.00000000</v>
    <i name="NUPDOWN">     -1.00000000</i>
    <i type="logical" name="LSORBIT"> F  </i>
    <v name="SAXIS">      0.00000000      0.00000000      1.00000000</v>
    <i type="logical" name="LSPIRAL"> F  </i>
    <v name="QSPIRAL">      0.00000000      0.00000000      0.00000000</v>
    <i type="logical" name="LZEROZ"> F  </i>
   </separator>
   <separator name="electronic exchange-correlation" >
    <i type="logical" name="LASPH"> F  </i>
    <i type="logical" name="LMETAGGA"> F  </i>
   </separator>
   <separator name="electronic convergence" >
    <i type="int" name="NELM">    60</i>
    <i type="int" name="NELMDL">    -5</i>
    <i type="int" name="NELMIN">     2</i>
    <i name="ENINI">    200.00000000</i>
    <separator name="electronic convergence detail" >
     <i type="logical" name="LDIAG"> T  </i>
     <i type="logical" name="LSUBROT"> F  </i>
     <i name="WEIMIN">      0.00100000</i>
     <i name="EBREAK">      0.00001250</i>
     <i name="DEPER">      0.30000000</i>
     <i type="int" name="NRMM">     4</i>
     <i name="TIME">      0.40000000</i>
    </separator>
   </separator>
   <separator name="electronic mixer" >
    <i name="AMIX">      0.40000000</i>
    <i name="BMIX">      1.00000000</i>
    <i name="AMIN">      0.10000000</i>
    <i name="AMIX_MAG">      1.60000000</i>
    <i name="BMIX_MAG">      1.00000000</i>
    <separator name="electronic mixer details" >
     <i type="int" name="IMIX">     4</i>
     <i type="logical" name="MIXFIRST"> F  </i>
     <i type="int" name="MAXMIX">   -45</i>
     <i name="WC">    100.00000000</i>
     <i type="int" name="INIMIX">     1</i>
     <i type="int" name="MIXPRE">     1</i>
     <i type="int" name="MREMOVE">     5</i>
    </separator>
   </separator>
   <separator name="electronic dipolcorrection" >
    <i type="logical" name="LDIPOL"> F  </i>
    <i type="logical" name="LMONO"> F  </i>
    <i type="int" name="IDIPOL">     0</i>
    <i name="EPSILON">      1.00000000</i>
    <v name="DIPOL">   -100.00000000   -100.00000000   -100.00000000</v>
    <i name="EFIELD">      0.00000000</i>
   </separator>
  </separator>
  <separator name="grids" >
   <i type="int" name="NGX">    14</i>
   <i type="int" name="NGY">    14</i>
   <i type="int" name="NGZ">    14</i>
   <i type="int" name="NGXF">    28</i>
   <i type="int" name="NGYF">    28</i>
   <i type="int" name="NGZF">    28</i>
   <i type="logical" name="ADDGRID"> F  </i>
  </separator>
  <separator name="ionic" >
   <i type="int" name="NSW">    15</i>
   <i type="int" name="IBRION">     2</i>
   <i type="int" name="MDALGO">     0</i>
   <i type="int" name="ISIF">     3</i>
   <i name="PSTRESS">      0.00000000</i>
   <i name="EDIFFG">     -0.01000000</i>
   <i type="int" name="NFREE">     1</i>
   <i name="POTIM">      0.50000000</i>
   <i name="SMASS">     -3.00000000</i>
   <i name="SCALEE">      1.00000000</i>
  </separator>
  <separator name="ionic md" >
   <i name="TEBEG">      0.00010000</i>
   <i name="TEEND">      0.00010000</i>
   <i type="int" name="NBLOCK">     1</i>
   <i type="int" name="KBLOCK">    15</i>
   <i type="int" name="NPACO">   256</i>
   <i name="APACO">     16.00000000</i>
  </separator>
  <separator name="symmetry" >
   <i type="int" name="ISYM">     2</i>
   <i name="SYMPREC">      0.00001000</i>
  </separator>
  <separator name="dos" >
   <i type="int" name="LORBIT">     0</i>
   <v name="RWIGS">     -1.00000000</v>
   <i type="int" name="NEDOS">   301</i>
   <i name="EMIN">     10.00000000</i>
   <i name="EMAX">    -10.00000000</i>
   <i name="EFERMI">      0.00000000</i>
  </separator>
  <separator name="writing" >
   <i type="int" name="NWRITE">     2</i>
   <i type="logical" name="LWAVE"> T  </i>
   <i type="logical" name="LDOWNSAMPLE"> F  </i>
   <i type="logical" name="LCHARG"> T  </i>
   <i type="logical" name="LPARD"> F  </i>
   <i type="logical" name="LVTOT"> F  </i>
   <i type="logical" name="LVHAR"> F  </i>
   <i type="logical" name="LELF"> F  </i>
   <i type="logical" name="LOPTICS"> F  </i>
   <v name="STM">      0.00000000      0.00000000      0.00000000      0.00000000      0.00000000      0.00000000      0.00000000</v>
  </separator>
  <separator name="performance" >
   <i type="int" name="NPAR">     8</i>
   <i type="int" name="NSIM">     4</i>
   <i type="int" name="NBLK">    -1</i>
   <i type="logical" name="LPLANE"> T  </i>
   <i type="logical" name="LSCALAPACK"> T  </i>
   <i type="logical" name="LSCAAWARE"> F  </i>
   <i type="logical" name="LSCALU"> F  </i>
   <i type="logical" name="LASYNC"> F  </i>
   <i type="logical" name="LORBITALREAL"> F  </i>
  </separator>
  <separator name="miscellaneous" >
   <i type="int" name="IDIOT">     3</i>
   <i type="int" name="ISPECIAL">     0</i>
   <i type="logical" name="LMUSIC"> F  </i>
   <v name="POMASS">     28.08500000</v>
   <v name="DARWINR">      0.00000000</v>
   <v name="DARWINV">      1.00000000</v>
   <i type="logical" name="LCORR"> T  </i>
  </separator>
  <i type="logical" name="GGA_COMPAT"> T  </i>
  <i type="logical" name="LBERRY"> F  </i>
  <i type="int" name="ICORELEVEL">     0</i>
  <i type="logical" name="LDAU"> F  </i>
  <i type="int" name="I_CONSTRAINED_M">     0</i>
  <separator name="electronic exchange-correlation" >
   <i type="string" name="GGA">--</i>
   <i type="int" name="VOSKOWN">     0</i>
   <i type="logical" name="LHFCALC"> F  </i>
   <i type="string" name="PRECFOCK"></i>
   <i type="logical" name="LSYMGRAD"> F  </i>
   <i type="logical" name="LHFONE"> F  </i>
   <i type="logical" name="LRHFCALC"> F  </i>
   <i type="logical" name="LTHOMAS"> F  </i>
   <i type="logical" name="LMODELHF"> F  </i>
   <i name="ENCUT4O">     -1.00000000</i>
   <i type="int" name="EXXOEP">     0</i>
   <i type="int" name="FOURORBIT">     0</i>
   <i name="AEXX">      0.00000000</i>
   <i name="HFALPHA">      0.00000000</i>
   <i name="MCALPHA">      0.00000000</i>
   <i name="ALDAX">      1.00000000</i>
   <i name="AGGAX">      1.00000000</i>
   <i name="ALDAC">      1.00000000</i>
   <i name="AGGAC">      1.00000000</i>
   <i type="int" name="NKREDX">     1</i>
   <i type="int" name="NKREDY">     1</i>
   <i type="int" name="NKREDZ">     1</i>
   <i type="logical" name="SHIFTRED"> F  </i>
   <i type="logical" name="ODDONLY"> F  </i>
   <i type="logical" name="EVENONLY"> F  </i>
   <i type="int" name="LMAXFOCK">     0</i>
   <i type="int" name="NMAXFOCKAE">     0</i>
   <i type="logical" name="LFOCKAEDFT"> F  </i>
   <i name="HFSCREEN">      0.00000000</i>
   <i name="HFSCREENC">      0.00000000</i>
   <i type="int" name="NBANDSGWLOW">     0</i>
  </separator>
  <separator name="vdW DFT" >
   <i type="logical" name="LUSE_VDW"> F  </i>
   <i name="Zab_VDW">     -0.84910000</i>
   <i name="PARAM1">      0.12340000</i>
   <i name="PARAM2">      1.00000000</i>
   <i name="PARAM3">      0.00000000</i>
  </separator>
  <separator name="model GW" >
   <i type="int" name="MODEL_GW">     0</i>
   <i name="MODEL_EPS0">     12.00772552</i>
   <i name="MODEL_ALPHA">      1.00000000</i>
  </separator>
  <separator name="linear response parameters" >
   <i type="logical" name="LEPSILON"> F  </i>
   <i type="logical" name="LRPA"> F  </i>
   <i type="logical" name="LNABLA"> F  </i>
   <i type="logical" name="LVEL"> F  </i>
   <i type="int" name="KINTER">     0</i>
   <i name="CSHIFT">      0.10000000</i>
   <i name="OMEGAMAX">     -1.00000000</i>
   <i name="DEG_THRESHOLD">      0.00200000</i>
   <i name="RTIME">     -0.10000000</i>
   <i name="WPLASMAI">      0.00000000</i>
   <v name="DFIELD">      0.00000000      0.00000000      0.00000000</v>
   <v name="WPLASMA">      0.00000000      0.00000000      0.00000000      0.00000000      0.00000000      0.00000000      0.00000000      0.00000000      0.00000000</v>
  </separator>
  <separator name="orbital magnetization" >
   <i type="logical" name="NUCIND"> F  </i>
   <v name="MAGPOS">      0.00000000      0.00000000      0.00000000</v>
   <i type="logical" name="LNICSALL"> T  </i>
   <i type="logical" name="ORBITALMAG"> F  </i>
   <i type="logical" name="LMAGBLOCH"> F  </i>
   <i type="logical" name="LCHIMAG"> F  </i>
   <i type="logical" name="LGAUGE"> T  </i>
   <i type="int" name="MAGATOM">     0</i>
   <v name="MAGDIPOL">      0.00000000      0.00000000      0.00000000</v>
   <v name="AVECCONST">      0.00000000      0.00000000      0.00000000</v>
  </separator>
  <separator name="response functions" >
   <i type="logical" name="LADDER"> F  </i>
   <i type="logical" name="LRPAFORCE"> F  </i>
   <i type="logical" name="LFXC"> F  </i>
   <i type="logical" name="LHARTREE"> T  </i>
   <i type="int" name="IBSE">     0</i>
   <v type="int" name="KPOINT">    -1     0     0     0</v>
   <i type="logical" name="LTCTE"> F  </i>
   <i type="logical" name="LTETE"> F  </i>
   <i type="logical" name="LTRIPLET"> F  </i>
   <i type="logical" name="LFXCEPS"> F  </i>
   <i type="logical" name="LFXHEG"> F  </i>
   <i type="int" name="NATURALO">     2</i>
   <i type="logical" name="L2ORDER"> F  </i>
   <i type="logical" name="LMP2LT"> F  </i>
   <i type="logical" name="LUSEW"> F  </i>
   <i name="ENCUTGW">     -2.00000000</i>
   <i name="ENCUTGWSOFT">     -2.00000000</i>
   <i name="ENCUTLF">     -1.00000000</i>
   <i type="int" name="LMAXMP2">    -1</i>
   <i name="SCISSOR">      0.00000000</i>
   <i type="int" name="NOMEGA">     0</i>
   <i type="int" name="NOMEGAR">     0</i>
   <i type="int" name="NBANDSGW">    -1</i>
   <i type="int" name="NBANDSO">    -1</i>
   <i type="int" name="NBANDSV">    -1</i>
   <i type="int" name="NELM">     1</i>
   <i type="int" name="NELMHF">     1</i>
   <i type="int" name="DIM">     3</i>
   <i type="int" name="ANTIRES">     0</i>
   <i name="OMEGAMAX">    -30.00000000</i>
   <i name="OMEGAMIN">    -30.00000000</i>
   <i name="OMEGATL">   -200.00000000</i>
   <i type="int" name="OMEGAGRID">   140</i>
   <i name="CSHIFT">     -0.10000000</i>
   <i type="logical" name="SELFENERGY"> F  </i>
   <i type="logical" name="LSPECTRAL"> F  </i>
   <i type="logical" name="LSPECTRALGW"> F  </i>
   <i type="logical" name="LSINGLES"> F  </i>
   <i type="logical" name="LFERMIGW"> F  </i>
   <i type="logical" name="ODDONLYGW"> F  </i>
   <i type="logical" name="EVENONLYGW"> F  </i>
   <i type="int" name="NKREDLFX">     1</i>
   <i type="int" name="NKREDLFY">     1</i>
   <i type="int" name="NKREDLFZ">     1</i>
   <i type="int" name="MAXMEM">  2800</i>
   <i type="int" name="TELESCOPE">     0</i>
   <i type="int" name="TAUPAR">     1</i>
   <i type="int" name="OMEGAPAR">    -1</i>
   <i name="LAMBDA">      1.00000000</i>
  </separator>
  <separator name="External order field" >
   <i name="OFIELD_KAPPA">      0.00000000</i>
   <v name="OFIELD_K">      0.00000000      0.00000000      0.00000000</v>
   <i name="OFIELD_Q6_NEAR">      0.00000000</i>
   <i name="OFIELD_Q6_FAR">      0.00000000</i>
   <i name="OFIELD_A">      0.00000000</i>
  </separator>
 </parameters>
 <atominfo>
  <atoms>       2 </atoms>
  <types>       1 </types>
  <array name="atoms" >
   <dimension dim="1">ion</dimension>
   <field type="string">element</field>
   <field type="int">atomtype</field>
   <set>
    <rc><c>Si</c><c>   1</c></rc>
    <rc><c>Si</c><c>   1</c></rc>
   </set>
  </array>
  <array name="atomtypes" >
   <dimension dim="1">type</dimension>
   <field type="int">atomspertype</field>
   <field type="string">element</field>
   <field>mass</field>
   <field>valence</field>
   <field type="string">pseudopotential</field>
   <set>
    <rc><c>   2</c><c>Si</c><c>     28.08500000</c><c>      4.00000000</c><c> PAW_PBE Si 05Jan2001                   </c></rc>
   </set>
  </array>
 </atominfo>
 <structure name="initialpos" >
  <crystal>
   <varray name="basis" >
    <v>       0.00000000       2.71500000       2.71500000 </v>
    <v>       2.71500000       0.00000000       2.71500000 </v>
    <v>       2.71500000       2.71500000       0.00000000 </v>
   </varray>
   <i name="volume">     40.02575175 </i>
   <varray name="rec_basis" >
    <v>      -0.18416206       0.18416206       0.18416206 </v>
    <v>       0.18416206      -0.18416206       0.18416206 </v>
    <v>       0.18416206       0.18416206      -0.18416206 </v>
   </varray>
  </crystal>
  <varray name="positions" >
   <v>       0.50000000       0.50000000       0.50000000 </v>
   <v>       0.75000000       0.75000000       0.75000000 </v>
  </varray>
 </structure>
 <calculation>
  <scstep>
   <time name="dav">    0.49    0.49</time>
   <time name="total">    0.53    0.54</time>
   <energy>
    <i name="alphaZ">      3.36414203 </i>
    <i name="ewald">   -228.56352493 </i>
    <i name="hartreedc">    -11.00108243 </i>
    <i name="XCdc">    -18.60172597 </i>
    <i name="pawpsdc">     65.95520812 </i>
    <i name="pawaedc">    -30.76852678 </i>
    <i name="eentropy">     -0.01086254 </i>
    <i name="bandstr">     12.25040118 </i>
    <i name="atom">    206.11247263 </i>
    <i name="e_fr_energy">     -1.26349870 </i>
    <i name="e_wo_entrp">     -1.25263616 </i>
    <i name="e_0_energy">     -1.25806743 </i>
   </energy>
  </scstep>
  <scstep>
   <time name="dav">    0.79    0.80</time>
   <time name="total">    0.79    0.80</time>
   <energy>
    <i name="e_fr_energy">    -10.89191112 </i>
    <i name="e_wo_entrp">    -10.89190962 </i>
    <i name="e_0_energy">    -10.89191037 </i>
   </energy>
  </scstep>
  <scstep>
   <time name="dav">    0.57    0.57</time>
   <time name="total">    0.57    0.58</time>
   <energy>
    <i name="e_fr_energy">    -10.97664412 </i>
    <i name="e_wo_entrp">    -10.97664302 </i>
    <i name="e_0_energy">    -10.97664357 </i>
   </energy>
  </scstep>
  <scstep>
   <time name="dav">    0.84    0.85</time>
   <time name="total">    0.84    0.85</time>
   <energy>
    <i name="e_fr_energy">    -10.97687432 </i>
    <i name="e_wo_entrp">    -10.97687322 </i>
    <i name="e_0_energy">    -10.97687377 </i>
   </energy>
  </scstep>
  <scstep>
   <time name="dav">    0.56    0.56</time>
   <time name="total">    0.58    0.59</time>
   <energy>
    <i name="e_fr_energy">    -10.97687436 </i>
    <i name="e_wo_entrp">    -10.97687326 </i>
    <i name="e_0_energy">    -10.97687381 </i>
   </energy>
  </scstep>
  <scstep>
   <time name="dav">    0.50    0.50</time>
   <time name="total">    0.54    0.55</time>
   <energy>
    <i name="e_fr_energy">    -10.85291987 </i>
    <i name="e_wo_entrp">    -10.85291262 </i>
    <i name="e_0_energy">    -10.85291625 </i>
   </energy>
  </scstep>
  <scstep>
   <time name="dav">    0.54    0.54</time>
   <time name="total">    0.59    0.60</time>
   <energy>
    <i name="e_fr_energy">    -10.79633447 </i>
    <i name="e_wo_entrp">    -10.79627812 </i>
    <i name="e_0_energy">    -10.79630630 </i>
   </energy>
  </scstep>
  <scstep>
   <time name="dav">    0.48    0.48</time>
   <time name="total">    0.52    0.53</time>
   <energy>
    <i name="e_fr_energy">    -10.79761862 </i>
    <i name="e_wo_entrp">    -10.79757442 </i>
    <i name="e_0_energy">    -10.79759652 </i>
   </energy>
  </scstep>
  <scstep>
   <time name="dav">    0.36    0.36</time>
   <time name="total">    0.39    0.40</time>
   <energy>
    <i name="alphaZ">      3.36414203 </i>
    <i name="ewald">   -228.56352493 </i>
    <i name="hartreedc">    -14.89246071 </i>
    <i name="XCdc">    -17.94069813 </i>
    <i name="pawpsdc">     75.91456192 </i>
    <i name="pawaedc">    -40.96474950 </i>
    <i name="eentropy">     -0.00004381 </i>
    <i name="bandstr">      6.17258924 </i>
    <i name="atom">    206.11247263 </i>
    <i name="e_fr_energy">    -10.79771126 </i>
    <i name="e_wo_entrp">    -10.79766745 </i>
    <i name="e_0_energy">    -10.79768936 </i>
   </energy>
  </scstep>
  <structure>
   <crystal>
    <varray name="basis" >
     <v>       0.00000000       2.71500000       2.71500000 </v>
     <v>       2.71500000       0.00000000       2.71500000 </v>
     <v>       2.71500000       2.71500000       0.00000000 </v>
    </varray>
    <i name="volume">     40.02575175 </i>
    <varray name="rec_basis" >
     <v>      -0.18416206       0.18416206       0.18416206 </v>
     <v>       0.18416206      -0.18416206       0.18416206 </v>
     <v>       0.18416206       0.18416206      -0.18416206 </v>
    </varray>
   </crystal>
   <varray name="positions" >
    <v>       0.50000000       0.50000000       0.50000000 </v>
    <v>       0.75000000       0.75000000       0.75000000 </v>
   </varray>
  </structure>
  <varray name="forces" >
   <v>       0.00000000       0.00000000       0.00000000 </v>
   <v>      -0.00000000      -0.00000000      -0.00000000 </v>
  </varray>
  <varray name="stress" >
   <v>      18.69852646       0.00000000      -0.00000000 </v>
   <v>       0.00000000      18.69852646      -0.00000000 </v>
   <v>      -0.00000000       0.00000000      18.69852646 </v>
  </varray>
  <energy>
   <i name="e_fr_energy">    -10.79771126 </i>
   <i name="e_wo_entrp">    -10.79768936 </i>
   <i name="e_0_energy">     -0.00004381 </i>
  </energy>
  <time name="totalsc">    6.07    6.64</time>
 </calculation>
 <calculation>
  <scstep>
   <time name="dav">    0.53    0.53</time>
   <time name="total">    0.58    0.59</time>
   <energy>
    <i name="alphaZ">      3.25293841 </i>
    <i name="ewald">   -226.01682216 </i>
    <i name="hartreedc">    -14.73849707 </i>
    <i name="XCdc">    -18.10486762 </i>
    <i name="pawpsdc">     75.90641459 </i>
    <i name="pawaedc">    -40.95757177 </i>
    <i name="eentropy">     -0.00001340 </i>
    <i name="bandstr">      3.73959727 </i>
    <i name="atom">    206.11247263 </i>
    <i name="e_fr_energy">    -10.80634914 </i>
    <i name="e_wo_entrp">    -10.80633574 </i>
    <i name="e_0_energy">    -10.80634244 </i>
   </energy>
  </scstep>
  <scstep>
   <time name="dav">    0.57    0.58</time>
   <time name="total">    0.62    0.63</time>
   <energy>
    <i name="e_fr_energy">    -10.80226479 </i>
    <i name="e_wo_entrp">    -10.80224721 </i>
    <i name="e_0_energy">    -10.80225600 </i>
   </energy>
  </scstep>
  <scstep>
   <time name="dav">    0.51    0.51</time>
   <time name="total">    0.56    0.57</time>
   <energy>
    <i name="e_fr_energy">    -10.80014289 </i>
    <i name="e_wo_entrp">    -10.80011836 </i>
    <i name="e_0_energy">    -10.80013062 </i>
   </energy>
  </scstep>
  <scstep>
   <time name="dav">    0.26    0.27</time>
   <time name="total">    0.29    0.31</time>
   <energy>
    <i name="alphaZ">      3.25293841 </i>
    <i name="ewald">   -226.01682216 </i>
    <i name="hartreedc">    -15.30006440 </i>
    <i name="XCdc">    -18.09322864 </i>
    <i name="pawpsdc">     74.87865410 </i>
    <i name="pawaedc">    -39.90117015 </i>
    <i name="eentropy">     -0.00002408 </i>
    <i name="bandstr">      4.26711364 </i>
    <i name="atom">    206.11247263 </i>
    <i name="e_fr_energy">    -10.80013066 </i>
    <i name="e_wo_entrp">    -10.80010658 </i>
    <i name="e_0_energy">    -10.80011862 </i>
   </energy>
  </scstep>
  <structure>
   <crystal>
    <varray name="basis" >
     <v>       0.00000000       2.74559196       2.74559196 </v>
     <v>       2.74559196       0.00000000       2.74559196 </v>
     <v>       2.74559196       2.74559196      -0.00000000 </v>
    </varray>
    <i name="volume">     41.39405571 </i>
    <varray name="rec_basis" >
     <v>      -0.18211009       0.18211009       0.18211009 </v>
     <v>       0.18211009      -0.18211009       0.18211009 </v>
     <v>       0.18211009       0.18211009      -0.18211009 </v>
    </varray>
   </crystal>
   <varray name="positions" >
    <v>       0.50000000       0.50000000       0.50000000 </v>
    <v>       0.75000000       0.75000000       0.75000000 </v>
   </varray>
  </structure>
  <varray name="forces" >
   <v>       0.00000000       0.00000000       0.00000000 </v>
   <v>      -0.00000000      -0.00000000      -0.00000000 </v>
  </varray>
  <varray name="stress" >
   <v>     -11.76487595       0.00000000      -0.00000000 </v>
   <v>       0.00000000     -11.76487595       0.00000000 </v>
   <v>      -0.00000000       0.00000000     -11.76487595 </v>
  </varray>
  <energy>
   <i name="e_fr_energy">    -10.80013066 </i>
   <i name="e_wo_entrp">    -10.80011862 </i>
   <i name="e_0_energy">     -0.00002408 </i>
  </energy>
  <time name="totalsc">    2.39    2.59</time>
 </calculation>
 <calculation>
  <scstep>
   <time name="dav">    0.52    0.52</time>
   <time name="total">    0.56    0.57</time>
   <energy>
    <i name="alphaZ">      3.29618042 </i>
    <i name="ewald">   -227.01391372 </i>
    <i name="hartreedc">    -15.36988251 </i>
    <i name="XCdc">    -18.02990177 </i>
    <i name="pawpsdc">     74.84221078 </i>
    <i name="pawaedc">    -39.86325602 </i>
    <i name="eentropy">     -0.00003759 </i>
    <i name="bandstr">      5.22290954 </i>
    <i name="atom">    206.11247263 </i>
    <i name="e_fr_energy">    -10.80321824 </i>
    <i name="e_wo_entrp">    -10.80318065 </i>
    <i name="e_0_energy">    -10.80319945 </i>
   </energy>
  </scstep>
  <scstep>
   <time name="dav">    0.53    0.53</time>
   <time name="total">    0.58    0.59</time>
   <energy>
    <i name="e_fr_energy">    -10.80257564 </i>
    <i name="e_wo_entrp">    -10.80254163 </i>
    <i name="e_0_energy">    -10.80255863 </i>
   </energy>
  </scstep>
  <scstep>
   <time name="dav">    0.33    0.33</time>
   <time name="total">    0.36    0.37</time>
   <energy>
    <i name="alphaZ">      3.29618042 </i>
    <i name="ewald">   -227.01391372 </i>
    <i name="hartreedc">    -15.14347625 </i>
    <i name="XCdc">    -18.03544762 </i>
    <i name="pawpsdc">     75.18031028 </i>
    <i name="pawaedc">    -40.21003094 </i>
    <i name="eentropy">     -0.00002992 </i>
    <i name="bandstr">      5.01168549 </i>
    <i name="atom">    206.11247263 </i>
    <i name="e_fr_energy">    -10.80224963 </i>
    <i name="e_wo_entrp">    -10.80221971 </i>
    <i name="e_0_energy">    -10.80223467 </i>
   </energy>
  </scstep>
  <structure>
   <crystal>
    <varray name="basis" >
     <v>       0.00000000       2.73353276       2.73353276 </v>
     <v>       2.73353276       0.00000000       2.73353276 </v>
     <v>       2.73353276       2.73353276      -0.00000000 </v>
    </varray>
    <i name="volume">     40.85101437 </i>
    <varray name="rec_basis" >
     <v>      -0.18291348       0.18291348       0.18291348 </v>
     <v>       0.18291348      -0.18291348       0.18291348 </v>
     <v>       0.18291348       0.18291348      -0.18291348 </v>
    </varray>
   </crystal>
   <varray name="positions" >
    <v>       0.50000000       0.50000000       0.50000000 </v>
    <v>       0.75000000       0.75000000       0.75000000 </v>
   </varray>
  </structure>
  <varray name="forces" >
   <v>      -0.00000000      -0.00000000      -0.00000000 </v>
   <v>       0.00000000       0.00000000       0.00000000 </v>
  </varray>
  <varray name="stress" >
   <v>      -0.52135843       0.00000000      -0.00000000 </v>
   <v>       0.00000000      -0.52135843       0.00000000 </v>
   <v>      -0.00000000       0.00000000      -0.52135843 </v>
  </varray>
  <energy>
   <i name="e_fr_energy">    -10.80224963 </i>
   <i name="e_wo_entrp">    -10.80223467 </i>
   <i name="e_0_energy">     -0.00002992 </i>
  </energy>
  <time name="totalsc">    1.87    2.40</time>
  <eigenvalues>
   <array>
    <dimension dim="1">band</dimension>
    <dimension dim="2">kpoint</dimension>
    <dimension dim="3">spin</dimension>
    <field>eigene</field>
    <field>occ</field>
    <set>
     <set comment="spin 1">
      <set comment="kpoint 1">
       <r>   -6.1463    1.0000 </r>
       <r>    5.1135    1.0000 </r>
       <r>    5.5650    0.9981 </r>
       <r>    5.5650    0.9981 </r>
       <r>    8.2499    0.0000 </r>
       <r>    8.3340    0.0000 </r>
       <r>    8.3340    0.0000 </r>
       <r>    9.1776    0.0000 </r>
      </set>
      <set comment="kpoint 2">
       <r>   -5.8797    1.0000 </r>
       <r>    3.6069    1.0000 </r>
       <r>    4.7577    1.0000 </r>
       <r>    5.4457    0.9999 </r>
       <r>    8.3031    0.0000 </r>
       <r>    8.5787    0.0000 </r>
       <r>    8.8704    0.0000 </r>
       <r>   10.6569    0.0000 </r>
      </set>
      <set comment="kpoint 3">
       <r>   -5.2364    1.0000 </r>
       <r>    1.3854    1.0000 </r>
       <r>    4.2696    1.0000 </r>
       <r>    4.9822    1.0000 </r>
       <r>    7.8563    0.0000 </r>
       <r>    9.0781    0.0000 </r>
       <r>    9.3667    0.0000 </r>
       <r>   12.2168    0.0000 </r>
      </set>
      <set comment="kpoint 4">
       <r>   -4.3391    1.0000 </r>
       <r>   -0.4935    1.0000 </r>
       <r>    4.0504    1.0000 </r>
       <r>    4.5738    1.0000 </r>
       <r>    7.5431    0.0000 </r>
       <r>    9.1472    0.0000 </r>
       <r>    9.1656    0.0000 </r>
       <r>   13.4480    0.0000 </r>
      </set>
      <set comment="kpoint 5">
       <r>   -3.8934    1.0000 </r>
       <r>   -1.1903    1.0000 </r>
       <r>    4.0996    1.0000 </r>
       <r>    4.3548    1.0000 </r>
       <r>    7.4624    0.0000 </r>
       <r>    8.9534    0.0000 </r>
       <r>    9.2292    0.0000 </r>
       <r>   13.5131    0.0000 </r>
      </set>
      <set comment="kpoint 6">
       <r>   -4.6464    1.0000 </r>
       <r>    0.0622    1.0000 </r>
       <r>    4.3768    1.0000 </r>
       <r>    4.3865    1.0000 </r>
       <r>    7.6287    0.0000 </r>
       <r>    8.9594    0.0000 </r>
       <r>    9.4806    0.0000 </r>
       <r>   12.6027    0.0000 </r>
      </set>
      <set comment="kpoint 7">
       <r>   -5.4887    1.0000 </r>
       <r>    2.1124    1.0000 </r>
       <r>    4.6551    1.0000 </r>
       <r>    4.8526    1.0000 </r>
       <r>    7.9840    0.0000 </r>
       <r>    8.8118    0.0000 </r>
       <r>    9.5353    0.0000 </r>
       <r>   11.4067    0.0000 </r>
      </set>
      <set comment="kpoint 8">
       <r>   -6.0123    1.0000 </r>
       <r>    4.3601    1.0000 </r>
       <r>    5.1377    1.0000 </r>
       <r>    5.2967    1.0000 </r>
       <r>    8.0486    0.0000 </r>
       <r>    8.6174    0.0000 </r>
       <r>    8.9147    0.0000 </r>
       <r>    9.9198    0.0000 </r>
      </set>
      <set comment="kpoint 9">
       <r>   -5.7456    1.0000 </r>
       <r>    3.4651    1.0000 </r>
       <r>    4.5800    1.0000 </r>
       <r>    4.6637    1.0000 </r>
       <r>    7.6299    0.0000 </r>
       <r>    9.3780    0.0000 </r>
       <r>    9.7748    0.0000 </r>
       <r>   10.2901    0.0000 </r>
      </set>
      <set comment="kpoint 10">
       <r>   -5.2241    1.0000 </r>
       <r>    1.9642    1.0000 </r>
       <r>    3.6097    1.0000 </r>
       <r>    4.4042    1.0000 </r>
       <r>    7.8012    0.0000 </r>
       <r>    9.4859    0.0000 </r>
       <r>   10.1322    0.0000 </r>
       <r>   10.5811    0.0000 </r>
      </set>
      <set comment="kpoint 11">
       <r>   -4.3836    1.0000 </r>
       <r>    0.1139    1.0000 </r>
       <r>    3.1154    1.0000 </r>
       <r>    3.9924    1.0000 </r>
       <r>    7.9979    0.0000 </r>
       <r>    9.4237    0.0000 </r>
       <r>   10.6037    0.0000 </r>
       <r>   10.8893    0.0000 </r>
      </set>
      <set comment="kpoint 12">
       <r>   -3.6263    1.0000 </r>
       <r>   -1.0897    1.0000 </r>
       <r>    2.8276    1.0000 </r>
       <r>    3.8993    1.0000 </r>
       <r>    8.0675    0.0000 </r>
       <r>    9.1246    0.0000 </r>
       <r>   10.4591    0.0000 </r>
       <r>   12.9055    0.0000 </r>
      </set>
      <set comment="kpoint 13">
       <r>   -4.0816    1.0000 </r>
       <r>   -0.4033    1.0000 </r>
       <r>    2.7546    1.0000 </r>
       <r>    4.1837    1.0000 </r>
       <r>    8.3439    0.0000 </r>
       <r>    9.0376    0.0000 </r>
       <r>   10.4013    0.0000 </r>
       <r>   12.1600    0.0000 </r>
      </set>
      <set comment="kpoint 14">
       <r>   -4.9775    1.0000 </r>
       <r>    1.3170    1.0000 </r>
       <r>    3.0556    1.0000 </r>
       <r>    4.6917    1.0000 </r>
       <r>    8.6560    0.0000 </r>
       <r>    8.9636    0.0000 </r>
       <r>   10.2745    0.0000 </r>
       <r>   10.7566    0.0000 </r>
      </set>
      <set comment="kpoint 15">
       <r>   -5.6160    1.0000 </r>
       <r>    2.7897    1.0000 </r>
       <r>    4.1813    1.0000 </r>
       <r>    5.0661    1.0000 </r>
       <r>    8.1958    0.0000 </r>
       <r>    8.8563    0.0000 </r>
       <r>    9.5891    0.0000 </r>
       <r>   10.8233    0.0000 </r>
      </set>
      <set comment="kpoint 16">
       <r>   -4.8257    1.0000 </r>
       <r>    1.4617    1.0000 </r>
       <r>    3.4671    1.0000 </r>
       <r>    3.5894    1.0000 </r>
       <r>    6.8236    0.0000 </r>
       <r>    8.4893    0.0000 </r>
       <r>   11.6492    0.0000 </r>
       <r>   11.7962    0.0000 </r>
      </set>
      <set comment="kpoint 17">
       <r>   -4.0780    1.0000 </r>
       <r>    0.2285    1.0000 </r>
       <r>    2.6829    1.0000 </r>
       <r>    3.2424    1.0000 </r>
       <r>    7.1395    0.0000 </r>
       <r>    8.3267    0.0000 </r>
       <r>   11.6095    0.0000 </r>
       <r>   12.7957    0.0000 </r>
      </set>
      <set comment="kpoint 18">
       <r>   -3.1849    1.0000 </r>
       <r>   -0.9633    1.0000 </r>
       <r>    1.8462    1.0000 </r>
       <r>    3.2108    1.0000 </r>
       <r>    7.3761    0.0000 </r>
       <r>    9.9946    0.0000 </r>
       <r>   11.1786    0.0000 </r>
       <r>   12.7036    0.0000 </r>
      </set>
      <set comment="kpoint 19">
       <r>   -3.2559    1.0000 </r>
       <r>   -0.8697    1.0000 </r>
       <r>    1.4947    1.0000 </r>
       <r>    3.5548    1.0000 </r>
       <r>    7.7770    0.0000 </r>
       <r>   10.7254    0.0000 </r>
       <r>   12.0214    0.0000 </r>
       <r>   12.3529    0.0000 </r>
      </set>
      <set comment="kpoint 20">
       <r>   -4.1472    1.0000 </r>
       <r>    0.0794    1.0000 </r>
       <r>    2.0966    1.0000 </r>
       <r>    4.1402    1.0000 </r>
       <r>    8.4077    0.0000 </r>
       <r>    9.6149    0.0000 </r>
       <r>   11.0417    0.0000 </r>
       <r>   11.3386    0.0000 </r>
      </set>
      <set comment="kpoint 21">
       <r>   -4.8648    1.0000 </r>
       <r>    0.7145    1.0000 </r>
       <r>    3.7249    1.0000 </r>
       <r>    4.5926    1.0000 </r>
       <r>    8.1182    0.0000 </r>
       <r>    8.9802    0.0000 </r>
       <r>    9.8423    0.0000 </r>
       <r>   11.5363    0.0000 </r>
      </set>
      <set comment="kpoint 22">
       <r>   -3.4279    1.0000 </r>
       <r>   -0.6303    1.0000 </r>
       <r>    2.7797    1.0000 </r>
       <r>    2.9952    1.0000 </r>
       <r>    6.4312    0.0006 </r>
       <r>    7.1463    0.0000 </r>
       <r>   13.9546    0.0000 </r>
       <r>   13.9720    0.0000 </r>
      </set>
      <set comment="kpoint 23">
       <r>   -2.5224    1.0000 </r>
       <r>   -1.6155    1.0000 </r>
       <r>    2.2244    1.0000 </r>
       <r>    2.7533    1.0000 </r>
       <r>    6.8648    0.0000 </r>
       <r>    7.5964    0.0000 </r>
       <r>   13.7033    0.0000 </r>
       <r>   14.6999    0.0000 </r>
      </set>
      <set comment="kpoint 24">
       <r>   -2.6192    1.0000 </r>
       <r>   -1.4509    1.0000 </r>
       <r>    1.4981    1.0000 </r>
       <r>    3.0681    1.0000 </r>
       <r>    7.2286    0.0000 </r>
       <r>    9.8359    0.0000 </r>
       <r>   12.1653    0.0000 </r>
       <r>   13.3041    0.0000 </r>
      </set>
      <set comment="kpoint 25">
       <r>   -3.3720    1.0000 </r>
       <r>   -1.0446    1.0000 </r>
       <r>    2.0493    1.0000 </r>
       <r>    3.6683    1.0000 </r>
       <r>    7.8972    0.0000 </r>
       <r>    9.8690    0.0000 </r>
       <r>   11.4140    0.0000 </r>
       <r>   12.6616    0.0000 </r>
      </set>
      <set comment="kpoint 26">
       <r>   -3.9775    1.0000 </r>
       <r>   -0.8948    1.0000 </r>
       <r>    3.5506    1.0000 </r>
       <r>    4.2553    1.0000 </r>
       <r>    7.9183    0.0000 </r>
       <r>    8.8898    0.0000 </r>
       <r>    9.6671    0.0000 </r>
       <r>   13.2163    0.0000 </r>
      </set>
      <set comment="kpoint 27">
       <r>   -2.5736    1.0000 </r>
       <r>   -1.6332    1.0000 </r>
       <r>    2.6423    1.0000 </r>
       <r>    2.8743    1.0000 </r>
       <r>    6.4269    0.0007 </r>
       <r>    6.7891    0.0000 </r>
       <r>   15.0274    0.0000 </r>
       <r>   15.0938    0.0000 </r>
      </set>
      <set comment="kpoint 28">
       <r>   -3.3427    1.0000 </r>
       <r>   -0.6940    1.0000 </r>
       <r>    2.3814    1.0000 </r>
       <r>    2.9126    1.0000 </r>
       <r>    6.9524    0.0000 </r>
       <r>    7.8472    0.0000 </r>
       <r>   12.6259    0.0000 </r>
       <r>   13.9575    0.0000 </r>
      </set>
      <set comment="kpoint 29">
       <r>   -3.8113    1.0000 </r>
       <r>   -0.4341    1.0000 </r>
       <r>    2.4438    1.0000 </r>
       <r>    3.5112    1.0000 </r>
       <r>    7.6535    0.0000 </r>
       <r>   10.1830    0.0000 </r>
       <r>   10.3896    0.0000 </r>
       <r>   11.6326    0.0000 </r>
      </set>
      <set comment="kpoint 30">
       <r>   -4.1827    1.0000 </r>
       <r>    0.4112    1.0000 </r>
       <r>    3.0547    1.0000 </r>
       <r>    3.2356    1.0000 </r>
       <r>    6.5625    0.0000 </r>
       <r>    7.7239    0.0000 </r>
       <r>   12.7847    0.0000 </r>
       <r>   12.8687    0.0000 </r>
      </set>
      <set comment="kpoint 31">
       <r>   -4.7089    1.0000 </r>
       <r>    1.1171    1.0000 </r>
       <r>    3.1024    1.0000 </r>
       <r>    3.7518    1.0000 </r>
       <r>    7.4299    0.0000 </r>
       <r>    9.0029    0.0000 </r>
       <r>   10.6610    0.0000 </r>
       <r>   11.6587    0.0000 </r>
      </set>
      <set comment="kpoint 32">
       <r>   -5.3487    1.0000 </r>
       <r>    2.4895    1.0000 </r>
       <r>    4.0139    1.0000 </r>
       <r>    4.0443    1.0000 </r>
       <r>    7.1939    0.0000 </r>
       <r>    9.3490    0.0000 </r>
       <r>   10.5951    0.0000 </r>
       <r>   10.7594    0.0000 </r>
      </set>
      <set comment="kpoint 33">
       <r>   -5.7489    1.0000 </r>
       <r>    2.8809    1.0000 </r>
       <r>    5.1216    1.0000 </r>
       <r>    5.1216    1.0000 </r>
       <r>    7.8555    0.0000 </r>
       <r>    8.9535    0.0000 </r>
       <r>    8.9535    0.0000 </r>
       <r>   11.3027    0.0000 </r>
      </set>
      <set comment="kpoint 34">
       <r>   -5.3586    1.0000 </r>
       <r>    2.0432    1.0000 </r>
       <r>    3.6076    1.0000 </r>
       <r>    5.1396    1.0000 </r>
       <r>    8.5116    0.0000 </r>
       <r>    9.0762    0.0000 </r>
       <r>    9.3790    0.0000 </r>
       <r>   11.3707    0.0000 </r>
      </set>
      <set comment="kpoint 35">
       <r>   -4.6148    1.0000 </r>
       <r>    0.6785    1.0000 </r>
       <r>    2.5281    1.0000 </r>
       <r>    4.6336    1.0000 </r>
       <r>    8.3631    0.0000 </r>
       <r>    9.8362    0.0000 </r>
       <r>   10.0506    0.0000 </r>
       <r>   11.6545    0.0000 </r>
      </set>
      <set comment="kpoint 36">
       <r>   -3.7246    1.0000 </r>
       <r>   -0.8054    1.0000 </r>
       <r>    2.3764    1.0000 </r>
       <r>    4.1021    1.0000 </r>
       <r>    7.8655    0.0000 </r>
       <r>   10.0199    0.0000 </r>
       <r>   10.2368    0.0000 </r>
       <r>   13.5220    0.0000 </r>
      </set>
      <set comment="kpoint 37">
       <r>   -3.7090    1.0000 </r>
       <r>   -0.8336    1.0000 </r>
       <r>    2.6755    1.0000 </r>
       <r>    3.7840    1.0000 </r>
       <r>    7.5887    0.0000 </r>
       <r>   10.0913    0.0000 </r>
       <r>   10.5872    0.0000 </r>
       <r>   11.5686    0.0000 </r>
      </set>
      <set comment="kpoint 38">
       <r>   -4.5982    1.0000 </r>
       <r>    0.6746    1.0000 </r>
       <r>    3.2868    1.0000 </r>
       <r>    3.7606    1.0000 </r>
       <r>    7.5191    0.0000 </r>
       <r>    9.7161    0.0000 </r>
       <r>   10.3712    0.0000 </r>
       <r>   10.9577    0.0000 </r>
      </set>
      <set comment="kpoint 39">
       <r>   -5.1030    1.0000 </r>
       <r>    1.3791    1.0000 </r>
       <r>    4.1142    1.0000 </r>
       <r>    4.1789    1.0000 </r>
       <r>    7.9117    0.0000 </r>
       <r>    9.2836    0.0000 </r>
       <r>   10.2054    0.0000 </r>
       <r>   10.5806    0.0000 </r>
      </set>
      <set comment="kpoint 40">
       <r>   -4.4794    1.0000 </r>
       <r>    0.6122    1.0000 </r>
       <r>    2.5844    1.0000 </r>
       <r>    3.9832    1.0000 </r>
       <r>    8.4057    0.0000 </r>
       <r>    9.4496    0.0000 </r>
       <r>    9.9420    0.0000 </r>
       <r>   11.4748    0.0000 </r>
      </set>
      <set comment="kpoint 41">
       <r>   -3.5922    1.0000 </r>
       <r>   -0.4858    1.0000 </r>
       <r>    1.7969    1.0000 </r>
       <r>    3.4152    1.0000 </r>
       <r>    8.8610    0.0000 </r>
       <r>    9.3472    0.0000 </r>
       <r>   10.6328    0.0000 </r>
       <r>   12.5825    0.0000 </r>
      </set>
      <set comment="kpoint 42">
       <r>   -3.1069    1.0000 </r>
       <r>   -1.0972    1.0000 </r>
       <r>    1.8009    1.0000 </r>
       <r>    3.1029    1.0000 </r>
       <r>    8.3910    0.0000 </r>
       <r>    9.6786    0.0000 </r>
       <r>   11.4173    0.0000 </r>
       <r>   12.7138    0.0000 </r>
      </set>
      <set comment="kpoint 43">
       <r>   -3.8758    1.0000 </r>
       <r>   -0.0953    1.0000 </r>
       <r>    2.2215    1.0000 </r>
       <r>    3.2815    1.0000 </r>
       <r>    8.1198    0.0000 </r>
       <r>    9.3411    0.0000 </r>
       <r>   10.2139    0.0000 </r>
       <r>   12.7098    0.0000 </r>
      </set>
      <set comment="kpoint 44">
       <r>   -3.9847    1.0000 </r>
       <r>   -0.0388    1.0000 </r>
       <r>    2.5551    1.0000 </r>
       <r>    3.4294    1.0000 </r>
       <r>    7.1388    0.0000 </r>
       <r>    9.1743    0.0000 </r>
       <r>   11.4545    0.0000 </r>
       <r>   11.7869    0.0000 </r>
      </set>
      <set comment="kpoint 45">
       <r>   -3.1844    1.0000 </r>
       <r>   -0.8336    1.0000 </r>
       <r>    1.9784    1.0000 </r>
       <r>    2.7457    1.0000 </r>
       <r>    7.9162    0.0000 </r>
       <r>    8.9348    0.0000 </r>
       <r>   11.1073    0.0000 </r>
       <r>   13.9241    0.0000 </r>
      </set>
      <set comment="kpoint 46">
       <r>   -2.3799    1.0000 </r>
       <r>   -1.5861    1.0000 </r>
       <r>    1.6600    1.0000 </r>
       <r>    2.2449    1.0000 </r>
       <r>    9.0421    0.0000 </r>
       <r>    9.9734    0.0000 </r>
       <r>   10.6518    0.0000 </r>
       <r>   11.6590    0.0000 </r>
      </set>
      <set comment="kpoint 47">
       <r>   -2.9802    1.0000 </r>
       <r>   -1.0402    1.0000 </r>
       <r>    1.6530    1.0000 </r>
       <r>    2.7202    1.0000 </r>
       <r>    9.1399    0.0000 </r>
       <r>    9.5675    0.0000 </r>
       <r>   10.3328    0.0000 </r>
       <r>   12.8299    0.0000 </r>
      </set>
      <set comment="kpoint 48">
       <r>   -2.5429    1.0000 </r>
       <r>   -1.5659    1.0000 </r>
       <r>    1.7641    1.0000 </r>
       <r>    3.0865    1.0000 </r>
       <r>    6.7031    0.0000 </r>
       <r>    8.6128    0.0000 </r>
       <r>   13.6144    0.0000 </r>
       <r>   13.8150    0.0000 </r>
      </set>
      <set comment="kpoint 49">
       <r>   -2.4428    1.0000 </r>
       <r>   -1.5954    1.0000 </r>
       <r>    1.8580    1.0000 </r>
       <r>    2.4597    1.0000 </r>
       <r>    7.8107    0.0000 </r>
       <r>    8.7300    0.0000 </r>
       <r>   12.1116    0.0000 </r>
       <r>   13.2286    0.0000 </r>
      </set>
      <set comment="kpoint 50">
       <r>   -3.2815    1.0000 </r>
       <r>   -0.7962    1.0000 </r>
       <r>    2.0308    1.0000 </r>
       <r>    3.2024    1.0000 </r>
       <r>    6.8566    0.0000 </r>
       <r>    8.8000    0.0000 </r>
       <r>   12.6184    0.0000 </r>
       <r>   12.6931    0.0000 </r>
      </set>
      <set comment="kpoint 51">
       <r>   -4.9960    1.0000 </r>
       <r>    0.6837    1.0000 </r>
       <r>    4.7072    1.0000 </r>
       <r>    4.7072    1.0000 </r>
       <r>    7.4039    0.0000 </r>
       <r>    9.1948    0.0000 </r>
       <r>    9.1948    0.0000 </r>
       <r>   13.2870    0.0000 </r>
      </set>
      <set comment="kpoint 52">
       <r>   -4.5184    1.0000 </r>
       <r>    0.1082    1.0000 </r>
       <r>    3.2422    1.0000 </r>
       <r>    4.6188    1.0000 </r>
       <r>    8.1238    0.0000 </r>
       <r>    9.4223    0.0000 </r>
       <r>    9.4664    0.0000 </r>
       <r>   12.6726    0.0000 </r>
      </set>
      <set comment="kpoint 53">
       <r>   -3.7295    1.0000 </r>
       <r>   -0.4216    1.0000 </r>
       <r>    1.7168    1.0000 </r>
       <r>    4.0382    1.0000 </r>
       <r>    7.7908    0.0000 </r>
       <r>   10.8644    0.0000 </r>
       <r>   11.0467    0.0000 </r>
       <r>   12.4299    0.0000 </r>
      </set>
      <set comment="kpoint 54">
       <r>   -2.9118    1.0000 </r>
       <r>   -1.2005    1.0000 </r>
       <r>    1.3787    1.0000 </r>
       <r>    3.4910    1.0000 </r>
       <r>    7.1705    0.0000 </r>
       <r>   11.0803    0.0000 </r>
       <r>   12.1400    0.0000 </r>
       <r>   12.4069    0.0000 </r>
      </set>
      <set comment="kpoint 55">
       <r>   -4.2053    1.0000 </r>
       <r>   -0.4486    1.0000 </r>
       <r>    3.5781    1.0000 </r>
       <r>    4.0543    1.0000 </r>
       <r>    7.8369    0.0000 </r>
       <r>    9.1958    0.0000 </r>
       <r>    9.9545    0.0000 </r>
       <r>   11.9992    0.0000 </r>
      </set>
      <set comment="kpoint 56">
       <r>   -3.5882    1.0000 </r>
       <r>   -0.8063    1.0000 </r>
       <r>    2.2708    1.0000 </r>
       <r>    3.5795    1.0000 </r>
       <r>    8.6115    0.0000 </r>
       <r>    8.9604    0.0000 </r>
       <r>   11.5021    0.0000 </r>
       <r>   11.7502    0.0000 </r>
      </set>
      <set comment="kpoint 57">
       <r>   -2.7742    1.0000 </r>
       <r>   -1.2652    1.0000 </r>
       <r>    1.4707    1.0000 </r>
       <r>    2.8674    1.0000 </r>
       <r>    8.2615    0.0000 </r>
       <r>   10.5198    0.0000 </r>
       <r>   11.3043    0.0000 </r>
       <r>   11.8324    0.0000 </r>
      </set>
      <set comment="kpoint 58">
       <r>   -3.2311    1.0000 </r>
       <r>   -1.0842    1.0000 </r>
       <r>    1.8785    1.0000 </r>
       <r>    3.5912    1.0000 </r>
       <r>    7.3206    0.0000 </r>
       <r>   11.0513    0.0000 </r>
       <r>   11.3527    0.0000 </r>
       <r>   11.4275    0.0000 </r>
      </set>
      <set comment="kpoint 59">
       <r>   -4.1100    1.0000 </r>
       <r>   -0.9558    1.0000 </r>
       <r>    4.4834    1.0000 </r>
       <r>    4.4834    1.0000 </r>
       <r>    7.1510    0.0000 </r>
       <r>    9.0549    0.0000 </r>
       <r>    9.0549    0.0000 </r>
       <r>   13.3991    0.0000 </r>
      </set>
      <set comment="kpoint 60">
       <r>   -3.7607    1.0000 </r>
       <r>   -1.1305    1.0000 </r>
       <r>    3.2621    1.0000 </r>
       <r>    4.2164    1.0000 </r>
       <r>    7.8676    0.0000 </r>
       <r>    9.1888    0.0000 </r>
       <r>    9.6410    0.0000 </r>
       <r>   13.8030    0.0000 </r>
      </set>
     </set>
    </set>
   </array>
  </eigenvalues>
  <separator name="orbital magnetization" >
   <v name="MAGDIPOLOUT">      0.00000000      0.00000000      0.00000000</v>
  </separator>
  <dos>
   <i name="efermi">      5.97493651 </i>
   <total>
    <array>
     <dimension dim="1">gridpoints</dimension>
     <dimension dim="2">spin</dimension>
     <field>energy</field>
     <field>total</field>
     <field>integrated</field>
     <set>
      <set comment="spin 1">
       <r>    -8.1463     0.0000     0.0000 </r>
       <r>    -8.0622     0.0000     0.0000 </r>
       <r>    -7.9780     0.0000     0.0000 </r>
       <r>    -7.8939     0.0000     0.0000 </r>
       <r>    -7.8098     0.0000     0.0000 </r>
       <r>    -7.7256     0.0000     0.0000 </r>
       <r>    -7.6415     0.0000     0.0000 </r>
       <r>    -7.5574     0.0000     0.0000 </r>
       <r>    -7.4732     0.0000     0.0000 </r>
       <r>    -7.3891     0.0000     0.0000 </r>
       <r>    -7.3050     0.0000     0.0000 </r>
       <r>    -7.2208     0.0000     0.0000 </r>
       <r>    -7.1367     0.0000     0.0000 </r>
       <r>    -7.0526     0.0000     0.0000 </r>
       <r>    -6.9684     0.0000     0.0000 </r>
       <r>    -6.8843     0.0000     0.0000 </r>
       <r>    -6.8001     0.0000     0.0000 </r>
       <r>    -6.7160     0.0000     0.0000 </r>
       <r>    -6.6319     0.0000     0.0000 </r>
       <r>    -6.5477     0.0002     0.0000 </r>
       <r>    -6.4636     0.0011     0.0001 </r>
       <r>    -6.3795     0.0046     0.0005 </r>
       <r>    -6.2953     0.0144     0.0017 </r>
       <r>    -6.2112     0.0347     0.0046 </r>
       <r>    -6.1271     0.0670     0.0103 </r>
       <r>    -6.0429     0.1066     0.0192 </r>
       <r>    -5.9588     0.1453     0.0315 </r>
       <r>    -5.8747     0.1796     0.0466 </r>
       <r>    -5.7905     0.2119     0.0644 </r>
       <r>    -5.7064     0.2432     0.0849 </r>
       <r>    -5.6223     0.2668     0.1073 </r>
       <r>    -5.5381     0.2795     0.1308 </r>
       <r>    -5.4540     0.2936     0.1555 </r>
       <r>    -5.3699     0.3242     0.1828 </r>
       <r>    -5.2857     0.3631     0.2134 </r>
       <r>    -5.2016     0.3847     0.2457 </r>
       <r>    -5.1175     0.3832     0.2780 </r>
       <r>    -5.0333     0.3830     0.3102 </r>
       <r>    -4.9492     0.4037     0.3442 </r>
       <r>    -4.8651     0.4372     0.3809 </r>
       <r>    -4.7809     0.4702     0.4205 </r>
       <r>    -4.6968     0.5018     0.4627 </r>
       <r>    -4.6127     0.5304     0.5073 </r>
       <r>    -4.5285     0.5445     0.5531 </r>
       <r>    -4.4444     0.5377     0.5984 </r>
       <r>    -4.3603     0.5247     0.6425 </r>
       <r>    -4.2761     0.5427     0.6882 </r>
       <r>    -4.1920     0.6185     0.7402 </r>
       <r>    -4.1079     0.7245     0.8012 </r>
       <r>    -4.0237     0.7993     0.8684 </r>
       <r>    -3.9396     0.8206     0.9375 </r>
       <r>    -3.8555     0.8193     1.0064 </r>
       <r>    -3.7713     0.8231     1.0756 </r>
       <r>    -3.6872     0.8210     1.1447 </r>
       <r>    -3.6031     0.7861     1.2109 </r>
       <r>    -3.5189     0.7258     1.2719 </r>
       <r>    -3.4348     0.6986     1.3307 </r>
       <r>    -3.3507     0.7468     1.3935 </r>
       <r>    -3.2665     0.8255     1.4630 </r>
       <r>    -3.1824     0.8409     1.5337 </r>
       <r>    -3.0983     0.7513     1.5969 </r>
       <r>    -3.0141     0.6016     1.6475 </r>
       <r>    -2.9300     0.4659     1.6867 </r>
       <r>    -2.8459     0.3868     1.7193 </r>
       <r>    -2.7617     0.3753     1.7509 </r>
       <r>    -2.6776     0.4281     1.7869 </r>
       <r>    -2.5935     0.5168     1.8304 </r>
       <r>    -2.5093     0.5788     1.8791 </r>
       <r>    -2.4252     0.5524     1.9255 </r>
       <r>    -2.3411     0.4302     1.9617 </r>
       <r>    -2.2569     0.2660     1.9841 </r>
       <r>    -2.1728     0.1275     1.9948 </r>
       <r>    -2.0887     0.0469     1.9988 </r>
       <r>    -2.0045     0.0169     2.0002 </r>
       <r>    -1.9204     0.0249     2.0023 </r>
       <r>    -1.8363     0.0826     2.0092 </r>
       <r>    -1.7521     0.2163     2.0274 </r>
       <r>    -1.6680     0.4120     2.0621 </r>
       <r>    -1.5839     0.5770     2.1106 </r>
       <r>    -1.4997     0.6156     2.1624 </r>
       <r>    -1.4156     0.5502     2.2087 </r>
       <r>    -1.3315     0.5093     2.2516 </r>
       <r>    -1.2473     0.5942     2.3016 </r>
       <r>    -1.1632     0.7937     2.3683 </r>
       <r>    -1.0791     1.0108     2.4534 </r>
       <r>    -0.9949     1.1544     2.5505 </r>
       <r>    -0.9108     1.1971     2.6512 </r>
       <r>    -0.8267     1.1418     2.7473 </r>
       <r>    -0.7425     0.9947     2.8310 </r>
       <r>    -0.6584     0.8147     2.8995 </r>
       <r>    -0.5743     0.7030     2.9586 </r>
       <r>    -0.4901     0.6833     3.0161 </r>
       <r>    -0.4060     0.6583     3.0715 </r>
       <r>    -0.3219     0.5451     3.1174 </r>
       <r>    -0.2377     0.3969     3.1508 </r>
       <r>    -0.1536     0.3296     3.1785 </r>
       <r>    -0.0695     0.3817     3.2106 </r>
       <r>     0.0147     0.4931     3.2521 </r>
       <r>     0.0988     0.5703     3.3001 </r>
       <r>     0.1830     0.5500     3.3464 </r>
       <r>     0.2671     0.4415     3.3835 </r>
       <r>     0.3512     0.3169     3.4102 </r>
       <r>     0.4354     0.2510     3.4313 </r>
       <r>     0.5195     0.2737     3.4543 </r>
       <r>     0.6036     0.3545     3.4842 </r>
       <r>     0.6878     0.4111     3.5187 </r>
       <r>     0.7719     0.3742     3.5502 </r>
       <r>     0.8560     0.2634     3.5724 </r>
       <r>     0.9402     0.1656     3.5863 </r>
       <r>     1.0243     0.1411     3.5982 </r>
       <r>     1.1084     0.1865     3.6139 </r>
       <r>     1.1926     0.2810     3.6375 </r>
       <r>     1.2767     0.4258     3.6734 </r>
       <r>     1.3608     0.6115     3.7248 </r>
       <r>     1.4450     0.7788     3.7903 </r>
       <r>     1.5291     0.8672     3.8633 </r>
       <r>     1.6132     0.8970     3.9388 </r>
       <r>     1.6974     0.9439     4.0182 </r>
       <r>     1.7815     1.0335     4.1051 </r>
       <r>     1.8656     1.1172     4.1991 </r>
       <r>     1.9498     1.1493     4.2958 </r>
       <r>     2.0339     1.1352     4.3913 </r>
       <r>     2.1180     1.1037     4.4842 </r>
       <r>     2.2022     1.0734     4.5745 </r>
       <r>     2.2863     1.0477     4.6626 </r>
       <r>     2.3704     1.0292     4.7492 </r>
       <r>     2.4546     1.0336     4.8362 </r>
       <r>     2.5387     1.0886     4.9278 </r>
       <r>     2.6228     1.2168     5.0302 </r>
       <r>     2.7070     1.3876     5.1469 </r>
       <r>     2.7911     1.4977     5.2729 </r>
       <r>     2.8752     1.4792     5.3974 </r>
       <r>     2.9594     1.4070     5.5157 </r>
       <r>     3.0435     1.4006     5.6336 </r>
       <r>     3.1276     1.4528     5.7558 </r>
       <r>     3.2118     1.4580     5.8785 </r>
       <r>     3.2959     1.3829     5.9948 </r>
       <r>     3.3800     1.3275     6.1065 </r>
       <r>     3.4642     1.3963     6.2240 </r>
       <r>     3.5483     1.5375     6.3533 </r>
       <r>     3.6324     1.5758     6.4859 </r>
       <r>     3.7166     1.4227     6.6056 </r>
       <r>     3.8007     1.1839     6.7052 </r>
       <r>     3.8848     1.0440     6.7931 </r>
       <r>     3.9690     1.0918     6.8849 </r>
       <r>     4.0531     1.2526     6.9903 </r>
       <r>     4.1372     1.3700     7.1056 </r>
       <r>     4.2214     1.3454     7.2188 </r>
       <r>     4.3055     1.1994     7.3197 </r>
       <r>     4.3896     1.0252     7.4059 </r>
       <r>     4.4738     0.9100     7.4825 </r>
       <r>     4.5579     0.8796     7.5565 </r>
       <r>     4.6420     0.8724     7.6299 </r>
       <r>     4.7262     0.7924     7.6965 </r>
       <r>     4.8103     0.6273     7.7493 </r>
       <r>     4.8944     0.4695     7.7888 </r>
       <r>     4.9786     0.4027     7.8227 </r>
       <r>     5.0627     0.4119     7.8574 </r>
       <r>     5.1468     0.4156     7.8923 </r>
       <r>     5.2310     0.3632     7.9229 </r>
       <r>     5.3151     0.2775     7.9462 </r>
       <r>     5.3992     0.2050     7.9635 </r>
       <r>     5.4834     0.1583     7.9768 </r>
       <r>     5.5675     0.1214     7.9870 </r>
       <r>     5.6516     0.0823     7.9939 </r>
       <r>     5.7358     0.0452     7.9977 </r>
       <r>     5.8199     0.0192     7.9993 </r>
       <r>     5.9040     0.0062     7.9999 </r>
       <r>     5.9882     0.0019     8.0000 </r>
       <r>     6.0723     0.0030     8.0003 </r>
       <r>     6.1564     0.0123     8.0013 </r>
       <r>     6.2406     0.0386     8.0046 </r>
       <r>     6.3247     0.0883     8.0120 </r>
       <r>     6.4088     0.1503     8.0246 </r>
       <r>     6.4930     0.2007     8.0415 </r>
       <r>     6.5771     0.2348     8.0613 </r>
       <r>     6.6612     0.2813     8.0849 </r>
       <r>     6.7454     0.3650     8.1156 </r>
       <r>     6.8295     0.4636     8.1547 </r>
       <r>     6.9136     0.5307     8.1993 </r>
       <r>     6.9978     0.5658     8.2469 </r>
       <r>     7.0819     0.6159     8.2987 </r>
       <r>     7.1660     0.6907     8.3568 </r>
       <r>     7.2502     0.7447     8.4195 </r>
       <r>     7.3343     0.7630     8.4837 </r>
       <r>     7.4185     0.7884     8.5500 </r>
       <r>     7.5026     0.8586     8.6222 </r>
       <r>     7.5867     0.9818     8.7048 </r>
       <r>     7.6709     1.1637     8.8027 </r>
       <r>     7.7550     1.4002     8.9206 </r>
       <r>     7.8391     1.6202     9.0569 </r>
       <r>     7.9233     1.7013     9.2000 </r>
       <r>     8.0074     1.6051     9.3351 </r>
       <r>     8.0915     1.4320     9.4555 </r>
       <r>     8.1757     1.3088     9.5656 </r>
       <r>     8.2598     1.2804     9.6734 </r>
       <r>     8.3439     1.2940     9.7822 </r>
       <r>     8.4281     1.2598     9.8882 </r>
       <r>     8.5122     1.1574     9.9856 </r>
       <r>     8.5963     1.0620    10.0750 </r>
       <r>     8.6805     1.0623    10.1643 </r>
       <r>     8.7646     1.2127    10.2664 </r>
       <r>     8.8487     1.5126    10.3936 </r>
       <r>     8.9329     1.8499    10.5493 </r>
       <r>     9.0170     2.0425    10.7211 </r>
       <r>     9.1011     2.0027    10.8896 </r>
       <r>     9.1853     1.8155    11.0423 </r>
       <r>     9.2694     1.6435    11.1806 </r>
       <r>     9.3535     1.5797    11.3135 </r>
       <r>     9.4377     1.5856    11.4469 </r>
       <r>     9.5218     1.5660    11.5787 </r>
       <r>     9.6059     1.4821    11.7034 </r>
       <r>     9.6901     1.3714    11.8188 </r>
       <r>     9.7742     1.2973    11.9279 </r>
       <r>     9.8583     1.2868    12.0362 </r>
       <r>     9.9425     1.2974    12.1453 </r>
       <r>    10.0266     1.2741    12.2525 </r>
       <r>    10.1107     1.2293    12.3559 </r>
       <r>    10.1949     1.2117    12.4579 </r>
       <r>    10.2790     1.2281    12.5612 </r>
       <r>    10.3631     1.2556    12.6669 </r>
       <r>    10.4473     1.3043    12.7766 </r>
       <r>    10.5314     1.3985    12.8943 </r>
       <r>    10.6155     1.4935    13.0199 </r>
       <r>    10.6997     1.4831    13.1447 </r>
       <r>    10.7838     1.3268    13.2563 </r>
       <r>    10.8679     1.1080    13.3495 </r>
       <r>    10.9521     0.9406    13.4287 </r>
       <r>    11.0362     0.8636    13.5013 </r>
       <r>    11.1203     0.8472    13.5726 </r>
       <r>    11.2045     0.8821    13.6468 </r>
       <r>    11.2886     1.0072    13.7316 </r>
       <r>    11.3727     1.2185    13.8341 </r>
       <r>    11.4569     1.4199    13.9535 </r>
       <r>    11.5410     1.5139    14.0809 </r>
       <r>    11.6251     1.4732    14.2049 </r>
       <r>    11.7093     1.3101    14.3151 </r>
       <r>    11.7934     1.0626    14.4045 </r>
       <r>    11.8775     0.8175    14.4733 </r>
       <r>    11.9617     0.6771    14.5302 </r>
       <r>    12.0458     0.6713    14.5867 </r>
       <r>    12.1299     0.7214    14.6474 </r>
       <r>    12.2141     0.7201    14.7080 </r>
       <r>    12.2982     0.6493    14.7626 </r>
       <r>    12.3823     0.5907    14.8123 </r>
       <r>    12.4665     0.6424    14.8664 </r>
       <r>    12.5506     0.8436    14.9373 </r>
       <r>    12.6347     1.1211    15.0317 </r>
       <r>    12.7189     1.3007    15.1411 </r>
       <r>    12.8030     1.2461    15.2459 </r>
       <r>    12.8871     0.9820    15.3285 </r>
       <r>    12.9713     0.6583    15.3839 </r>
       <r>    13.0554     0.4311    15.4202 </r>
       <r>    13.1395     0.3706    15.4514 </r>
       <r>    13.2237     0.4252    15.4872 </r>
       <r>    13.3078     0.4814    15.5277 </r>
       <r>    13.3919     0.4779    15.5679 </r>
       <r>    13.4761     0.4405    15.6049 </r>
       <r>    13.5602     0.4137    15.6397 </r>
       <r>    13.6443     0.4139    15.6746 </r>
       <r>    13.7285     0.4427    15.7118 </r>
       <r>    13.8126     0.4951    15.7535 </r>
       <r>    13.8967     0.5387    15.7988 </r>
       <r>    13.9809     0.5145    15.8421 </r>
       <r>    14.0650     0.3949    15.8753 </r>
       <r>    14.1491     0.2302    15.8947 </r>
       <r>    14.2333     0.0991    15.9030 </r>
       <r>    14.3174     0.0324    15.9057 </r>
       <r>    14.4016     0.0147    15.9070 </r>
       <r>    14.4857     0.0276    15.9093 </r>
       <r>    14.5698     0.0638    15.9146 </r>
       <r>    14.6540     0.1092    15.9238 </r>
       <r>    14.7381     0.1362    15.9353 </r>
       <r>    14.8222     0.1322    15.9464 </r>
       <r>    14.9064     0.1199    15.9565 </r>
       <r>    14.9905     0.1241    15.9669 </r>
       <r>    15.0746     0.1335    15.9782 </r>
       <r>    15.1588     0.1199    15.9883 </r>
       <r>    15.2429     0.0810    15.9951 </r>
       <r>    15.3270     0.0399    15.9984 </r>
       <r>    15.4112     0.0142    15.9996 </r>
       <r>    15.4953     0.0036    15.9999 </r>
       <r>    15.5794     0.0007    16.0000 </r>
       <r>    15.6636     0.0001    16.0000 </r>
       <r>    15.7477     0.0000    16.0000 </r>
       <r>    15.8318     0.0000    16.0000 </r>
       <r>    15.9160     0.0000    16.0000 </r>
       <r>    16.0001     0.0000    16.0000 </r>
       <r>    16.0842     0.0000    16.0000 </r>
       <r>    16.1684     0.0000    16.0000 </r>
       <r>    16.2525     0.0000    16.0000 </r>
       <r>    16.3366     0.0000    16.0000 </r>
       <r>    16.4208     0.0000    16.0000 </r>
       <r>    16.5049     0.0000    16.0000 </r>
       <r>    16.5890     0.0000    16.0000 </r>
       <r>    16.6732     0.0000    16.0000 </r>
       <r>    16.7573     0.0000    16.0000 </r>
       <r>    16.8414     0.0000    16.0000 </r>
       <r>    16.9256     0.0000    16.0000 </r>
       <r>    17.0097     0.0000    16.0000 </r>
       <r>    17.0938     0.0000    16.0000 </r>
      </set>
     </set>
    </array>
   </total>
  </dos>
 </calculation>
 <structure name="finalpos" >
  <crystal>
   <varray name="basis" >
    <v>       0.00000000       2.73353276       2.73353276 </v>
    <v>       2.73353276       0.00000000       2.73353276 </v>
    <v>       2.73353276       2.73353276      -0.00000000 </v>
   </varray>
   <i name="volume">     40.85101437 </i>
   <varray name="rec_basis" >
    <v>      -0.18291348       0.18291348       0.18291348 </v>
    <v>       0.18291348      -0.18291348       0.18291348 </v>
    <v>       0.18291348       0.18291348      -0.18291348 </v>
   </varray>
  </crystal>
  <varray name="positions" >
   <v>       0.50000000       0.50000000       0.50000000 </v>
   <v>       0.75000000       0.75000000       0.75000000 </v>
  </varray>
 </structure>
</modeling>
