unknown system                          
   1.00000000000000     
     0.000000    2.764442    2.764442
     2.764442    0.000000    2.764442
     2.764442    2.764442    0.000000
   Si
     2
Direct
  0.500000  0.500000  0.500000
  0.750000  0.750000  0.750000
 
   36   36   36
 0.82417     0.83965     0.88715     0.96979      1.0923      1.2606      1.4812      1.7604      2.1040      2.5154    
  2.9937      3.5315      4.1120      4.7084      5.2841      5.7962      6.2014      6.4617      6.5515      6.4617    
  6.2014      5.7963      5.2841      4.7085      4.1121      3.5316      2.9938      2.5154      2.1040      1.7604    
  1.4812      1.2606      1.0923     0.96980     0.88715     0.83965     0.83965     0.86663     0.92236      1.0101    
  1.1344      1.3002      1.5131      1.7776      2.0972      2.4722      2.8985      3.3656      3.8553      4.3415    
  4.7917      5.1709      5.4456      5.5902      5.5902      5.4456      5.1709      4.7918      4.3416      3.8554    
  3.3657      2.8985      2.4721      2.0971      1.7776      1.5131      1.3002      1.1344      1.0101     0.92235    
 0.86663     0.83964     0.88715     0.92236     0.98336      1.0734      1.1965      1.3571      1.5592      1.8060    
  2.0986      2.4351      2.8087      3.2072      3.6122      3.9995      4.3418      4.6112      4.7839      4.8433    
  4.7839      4.6112      4.3418      3.9995      3.6122      3.2072      2.8087      2.4350      2.0986      1.8059    
  1.5592      1.3571      1.1965      1.0734     0.98336     0.92235     0.88714     0.87565     0.96979      1.0101    
  1.0734      1.1628      1.2817      1.4339      1.6222      1.8483      2.1116      2.4081      2.7295      3.0630    
  3.3909      3.6922      3.9443      4.1264      4.2219      4.2219      4.1264      3.9443      3.6922      3.3909    
  3.0630      2.7295      2.4080      2.1115      1.8483      1.6222      1.4339      1.2818      1.1628      1.0734    
  1.0101     0.96978     0.95022     0.95022      1.0923      1.1344      1.1965      1.2817      1.3931      1.5333    
  1.7045      1.9069      2.1384      2.3939      2.6644      2.9372      3.1964      3.4243      3.6030      3.7172    
  3.7565      3.7172      3.6030      3.4243      3.1964      2.9372      2.6643      2.3938      2.1384      1.9069    
  1.7045      1.5334      1.3931      1.2818      1.1965      1.1343      1.0923      1.0681      1.0602      1.0681    
  1.2606      1.3002      1.3571      1.4339      1.5333      1.6576      1.8077      1.9829      2.1802      2.3939    
  2.6150      2.8319      3.0307      3.1968      3.3166      3.3794      3.3794      3.3166      3.1968      3.0306    
  2.8318      2.6150      2.3939      2.1802      1.9829      1.8077      1.6576      1.5334      1.4339      1.3571    
  1.3002      1.2606      1.2358      1.2238      1.2239      1.2358      1.4812      1.5131      1.5592      1.6222    
  1.7045      1.8077      1.9320      2.0762      2.2369      2.4081      2.5816      2.7472      2.8931      3.0079    
  3.0814      3.1068      3.0814      3.0079      2.8931      2.7471      2.5816      2.4081      2.2369      2.0763    
  1.9321      1.8077      1.7045      1.6222      1.5592      1.5131      1.4812      1.4608      1.4496      1.4460    
  1.4496      1.4608      1.7604      1.7776      1.8060      1.8483      1.9069      1.9829      2.0762      2.1854    
  2.3068      2.4351      2.5630      2.6818      2.7821      2.8550      2.8934      2.8934      2.8550      2.7821    
  2.6818      2.5630      2.4351      2.3068      2.1854      2.0763      1.9829      1.9069      1.8483      1.8059    
  1.7776      1.7604      1.7513      1.7471      1.7457      1.7457      1.7471      1.7513      2.1040      2.0972    
  2.0986      2.1116      2.1384      2.1802      2.2369      2.3068      2.3868      2.4722      2.5568      2.6336    
  2.6952      2.7352      2.7491      2.7352      2.6952      2.6336      2.5568      2.4722      2.3868      2.3068    
  2.2369      2.1802      2.1384      2.1116      2.0986      2.0972      2.1040      2.1154      2.1272      2.1359    
  2.1391      2.1359      2.1271      2.1154      2.5154      2.4722      2.4351      2.4081      2.3939      2.3939    
  2.4081      2.4351      2.4722      2.5154      2.5598      2.5999      2.6302      2.6466      2.6466      2.6302    
  2.5999      2.5598      2.5154      2.4721      2.4350      2.4080      2.3938      2.3938      2.4080      2.4350    
  2.4721      2.5154      2.5598      2.5999      2.6302      2.6466      2.6466      2.6302      2.5999      2.5598    
  2.9937      2.8985      2.8087      2.7295      2.6644      2.6150      2.5816      2.5630      2.5568      2.5598    
  2.5681      2.5778      2.5852      2.5880      2.5853      2.5778      2.5681      2.5598      2.5568      2.5629    
  2.5815      2.6149      2.6643      2.7295      2.8087      2.8985      2.9937      3.0878      3.1730      3.2413    
  3.2855      3.3009      3.2855      3.2412      3.1730      3.0878      3.5315      3.3656      3.2072      3.0630    
  2.9372      2.8319      2.7472      2.6818      2.6336      2.5999      2.5778      2.5648      2.5588      2.5589    
  2.5648      2.5778      2.5999      2.6335      2.6817      2.7471      2.8318      2.9372      3.0630      3.2073    
  3.3657      3.5315      3.6959      3.8480      3.9760      4.0690      4.1179      4.1179      4.0689      3.9760    
  3.8479      3.6958      4.1120      3.8553      3.6122      3.3909      3.1964      3.0307      2.8931      2.7821    
  2.6952      2.6302      2.5852      2.5588      2.5502      2.5589      2.5853      2.6302      2.6952      2.7820    
  2.8930      3.0306      3.1964      3.3909      3.6122      3.8554      4.1121      4.3705      4.6157      4.8311    
  5.0001      5.1081      5.1453      5.1081      5.0001      4.8311      4.6156      4.3704      4.7084      4.3415    
  3.9995      3.6922      3.4243      3.1968      3.0079      2.8550      2.7352      2.6466      2.5880      2.5589    
  2.5589      2.5880      2.6466      2.7351      2.8549      3.0078      3.1967      3.4243      3.6922      3.9996    
  4.3416      4.7084      5.0853      5.4524      5.7871      6.0654      6.2655      6.3702      6.3702      6.2655    
  6.0654      5.7871      5.4524      5.0852      5.2841      4.7917      4.3418      3.9443      3.6030      3.3166    
  3.0814      2.8934      2.7491      2.6466      2.5853      2.5648      2.5853      2.6466      2.7490      2.8932    
  3.0813      3.3165      3.6030      3.9444      4.3418      4.7918      5.2841      5.8011      6.3182      6.8055    
  7.2303      7.5612      7.7717      7.8440      7.7717      7.5612      7.2303      6.8055      6.3183      5.8011    
  5.7962      5.1709      4.6112      4.1264      3.7172      3.3794      3.1068      2.8934      2.7352      2.6302    
  2.5778      2.5778      2.6302      2.7351      2.8932      3.1066      3.3793      3.7172      4.1264      4.6113    
  5.1709      5.7962      6.4684      7.1584      7.8288      8.4374      8.9414      9.3023      9.4907      9.4907    
  9.3023      8.9414      8.4374      7.8288      7.1584      6.4685      6.2014      5.4456      4.7839      4.2219    
  3.7565      3.3794      3.0814      2.8550      2.6952      2.5999      2.5681      2.5999      2.6952      2.8549    
  3.0813      3.3793      3.7565      4.2220      4.7839      5.4456      6.2013      7.0329      7.9086      8.7850    
  9.6100      10.328      10.888      11.243      11.365      11.243      10.888      10.328      9.6100      8.7850    
  7.9087      7.0330      6.4617      5.5902      4.8433      4.2219      3.7172      3.3166      3.0079      2.7821    
  2.6336      2.5598      2.5598      2.6335      2.7820      3.0078      3.3165      3.7172      4.2220      4.8434    
  5.5901      6.4617      7.4433      8.5036      9.5953      10.659      11.627      12.431      13.009      13.311    
  13.311      13.009      12.431      11.627      10.659      9.5954      8.5037      7.4434      6.5515      5.5902    
  4.7839      4.1264      3.6030      3.1968      2.8931      2.6818      2.5568      2.5154      2.5568      2.6817    
  2.8930      3.1967      3.6030      4.1264      4.7839      5.5901      6.5515      7.6595      8.8866      10.185    
  11.492      12.731      13.818      14.672      15.219      15.408      15.219      14.672      13.818      12.730    
  11.492      10.185      8.8866      7.6596      6.4617      5.4456      4.6112      3.9443      3.4243      3.0306    
  2.7471      2.5630      2.4722      2.4721      2.5629      2.7471      3.0306      3.4243      3.9444      4.6113    
  5.4456      6.4617      7.6595      9.0188      10.497      12.030      13.538      14.928      16.099      16.947    
  17.391      17.391      16.946      16.099      14.928      13.538      12.030      10.497      9.0188      7.6595    
  6.2014      5.1709      4.3418      3.6922      3.1964      2.8318      2.5816      2.4351      2.3868      2.4350    
  2.5815      2.8318      3.1964      3.6922      4.3418      5.1709      6.2013      7.4433      8.8866      10.497    
  12.216      13.965      15.648      17.147      18.327      19.081      19.341      19.081      18.327      17.147    
  15.648      13.965      12.215      10.497      8.8866      7.4433      5.7963      4.7918      3.9995      3.3909    
  2.9372      2.6150      2.4081      2.3068      2.3068      2.4080      2.6149      2.9372      3.3909      3.9996    
  4.7918      5.7962      7.0329      8.5036      10.185      12.030      13.965      15.898      17.702      19.220    
  20.317      20.892      20.892      20.317      19.220      17.702      15.898      13.965      12.030      10.185    
  8.5036      7.0329      5.2841      4.3416      3.6122      3.0630      2.6643      2.3939      2.2369      2.1854    
  2.2369      2.3938      2.6643      3.0630      3.6122      4.3416      5.2841      6.4684      7.9086      9.5953    
  11.492      13.538      15.648      17.702      19.529      20.970      21.894      22.212      21.894      20.970    
  19.529      17.702      15.648      13.538      11.492      9.5953      7.9086      6.4684      4.7085      3.8554    
  3.2072      2.7295      2.3938      2.1802      2.0763      2.0763      2.1802      2.3938      2.7295      3.2073    
  3.8554      4.7084      5.8011      7.1584      8.7850      10.659      12.731      14.928      17.147      19.220    
  20.970      22.240      22.910      22.911      22.240      20.970      19.220      17.147      14.928      12.731    
  10.659      8.7849      7.1584      5.8011      4.1121      3.3657      2.8087      2.4080      2.1384      1.9829    
  1.9321      1.9829      2.1384      2.4080      2.8087      3.3657      4.1121      5.0853      6.3182      7.8288    
  9.6100      11.627      13.818      16.099      18.327      20.317      21.894      22.910      23.262      22.911    
  21.894      20.317      18.327      16.099      13.818      11.627      9.6099      7.8288      6.3183      5.0853    
  3.5316      2.8985      2.4350      2.1115      1.9069      1.8077      1.8077      1.9069      2.1116      2.4350    
  2.8985      3.5315      4.3705      5.4524      6.8055      8.4374      10.328      12.431      14.672      16.947    
  19.081      20.892      22.212      22.911      22.911      22.212      20.892      19.081      16.947      14.672    
  12.431      10.328      8.4373      6.8055      5.4525      4.3705      2.9938      2.4721      2.0986      1.8483    
  1.7045      1.6576      1.7045      1.8483      2.0986      2.4721      2.9937      3.6959      4.6157      5.7871    
  7.2303      8.9414      10.888      13.009      15.219      17.391      19.341      20.892      21.894      22.240    
  21.894      20.892      19.341      17.391      15.219      13.009      10.888      8.9413      7.2303      5.7872    
  4.6158      3.6960      2.5154      2.0971      1.8059      1.6222      1.5334      1.5334      1.6222      1.8059    
  2.0972      2.5154      3.0878      3.8480      4.8311      6.0654      7.5612      9.3023      11.243      13.311    
  15.408      17.391      19.081      20.317      20.970      20.970      20.317      19.081      17.391      15.408    
  13.311      11.243      9.3022      7.5612      6.0655      4.8312      3.8480      3.0879      2.1040      1.7776    
  1.5592      1.4339      1.3931      1.4339      1.5592      1.7776      2.1040      2.5598      3.1730      3.9760    
  5.0001      6.2655      7.7717      9.4907      11.365      13.311      15.219      16.946      18.327      19.220    
  19.529      19.220      18.327      16.947      15.219      13.311      11.365      9.4906      7.7717      6.2655    
  5.0002      3.9761      3.1730      2.5598      1.7604      1.5131      1.3571      1.2818      1.2818      1.3571    
  1.5131      1.7604      2.1154      2.5999      3.2413      4.0690      5.1081      6.3702      7.8440      9.4907    
  11.243      13.009      14.672      16.099      17.147      17.702      17.702      17.147      16.099      14.672    
  13.009      11.243      9.4906      7.8440      6.3702      5.1082      4.0691      3.2413      2.5999      2.1153    
  1.4812      1.3002      1.1965      1.1628      1.1965      1.3002      1.4812      1.7513      2.1272      2.6302    
  3.2855      4.1179      5.1453      6.3702      7.7717      9.3023      10.888      12.431      13.818      14.928    
  15.648      15.898      15.648      14.928      13.818      12.431      10.888      9.3022      7.7717      6.3702    
  5.1454      4.1180      3.2856      2.6302      2.1271      1.7512      1.2606      1.1344      1.0734      1.0734    
  1.1343      1.2606      1.4608      1.7471      2.1359      2.6466      3.3009      4.1179      5.1081      6.2655    
  7.5612      8.9414      10.328      11.627      12.730      13.538      13.965      13.965      13.538      12.731    
  11.627      10.328      8.9413      7.5612      6.2655      5.1082      4.1180      3.3009      2.6466      2.1358    
  1.7471      1.4607      1.0923      1.0101     0.98336      1.0101      1.0923      1.2358      1.4496      1.7457    
  2.1391      2.6466      3.2855      4.0689      5.0001      6.0654      7.2303      8.4374      9.6100      10.659    
  11.492      12.030      12.215      12.030      11.492      10.659      9.6099      8.4373      7.2303      6.0655    
  5.0002      4.0691      3.2856      2.6466      2.1390      1.7457      1.4495      1.2358     0.96980     0.92235    
 0.92235     0.96978      1.0681      1.2238      1.4460      1.7457      2.1359      2.6302      3.2412      3.9760    
  4.8311      5.7871      6.8055      7.8288      8.7850      9.5954      10.185      10.497      10.497      10.185    
  9.5953      8.7849      7.8288      6.8055      5.7872      4.8312      3.9761      3.2413      2.6302      2.1358    
  1.7457      1.4460      1.2238      1.0681     0.88715     0.86663     0.88714     0.95022      1.0602      1.2239    
  1.4496      1.7471      2.1271      2.5999      3.1730      3.8479      4.6156      5.4524      6.3183      7.1584    
  7.9087      8.5037      8.8866      9.0188      8.8866      8.5036      7.9086      7.1584      6.3183      5.4525    
  4.6158      3.8480      3.1730      2.5999      2.1271      1.7471      1.4495      1.2238      1.0602     0.95023    
 0.83965     0.83964     0.87565     0.95022      1.0681      1.2358      1.4608      1.7513      2.1154      2.5598    
  3.0878      3.6958      4.3704      5.0852      5.8011      6.4685      7.0330      7.4434      7.6596      7.6595    
  7.4433      7.0329      6.4684      5.8011      5.0853      4.3705      3.6960      3.0879      2.5598      2.1153    
  1.7512      1.4607      1.2358      1.0681     0.95023     0.87566     0.83965     0.86663     0.92236      1.0101    
  1.1344      1.3002      1.5131      1.7776      2.0972      2.4722      2.8985      3.3656      3.8553      4.3415    
  4.7917      5.1709      5.4456      5.5902      5.5902      5.4456      5.1709      4.7918      4.3416      3.8554    
  3.3657      2.8985      2.4721      2.0971      1.7776      1.5131      1.3002      1.1344      1.0101     0.92236    
 0.86663     0.83964     0.86663     0.90132     0.96135      1.0498      1.1707      1.3281      1.5264      1.7686    
  2.0561      2.3868      2.7542      3.1462      3.5444      3.9253      4.2617      4.5264      4.6960      4.7544    
  4.6960      4.5264      4.2617      3.9253      3.5444      3.1462      2.7542      2.3868      2.0560      1.7686    
  1.5264      1.3281      1.1707      1.0498     0.96135     0.90131     0.86663     0.85530     0.92236     0.96135    
  1.0224      1.1083      1.2225      1.3685      1.5493      1.7669      2.0206      2.3068      2.6173      2.9394    
  3.2560      3.5467      3.7898      3.9651      4.0571      4.0571      3.9651      3.7898      3.5467      3.2560    
  2.9394      2.6172      2.3067      2.0206      1.7669      1.5493      1.3685      1.2225      1.1083      1.0224    
 0.96134     0.92234     0.90337     0.90338      1.0101      1.0498      1.1083      1.1882      1.2924      1.4239    
  1.5848      1.7757      1.9947      2.2369      2.4934      2.7521      2.9976      3.2130      3.3817      3.4893    
  3.5264      3.4893      3.3817      3.2130      2.9976      2.7521      2.4934      2.2368      1.9947      1.7757    
  1.5848      1.4239      1.2924      1.1882      1.1083      1.0498      1.0101     0.98711     0.97959     0.98712    
  1.1344      1.1707      1.2225      1.2924      1.3831      1.4969      1.6352      1.7975      1.9811      2.1802    
  2.3863      2.5882      2.7728      2.9267      3.0375      3.0955      3.0955      3.0375      2.9267      2.7728    
  2.5882      2.3863      2.1802      1.9811      1.7975      1.6352      1.4969      1.3831      1.2924      1.2225    
  1.1707      1.1343      1.1114      1.1003      1.1003      1.1114      1.3002      1.3281      1.3685      1.4239    
  1.4969      1.5894      1.7021      1.8337      1.9811      2.1384      2.2978      2.4494      2.5827      2.6871    
  2.7538      2.7768      2.7538      2.6871      2.5827      2.4494      2.2978      2.1384      1.9811      1.8337    
  1.7021      1.5895      1.4969      1.4239      1.3685      1.3281      1.3002      1.2823      1.2724      1.2692    
  1.2724      1.2823      1.5131      1.5264      1.5493      1.5848      1.6352      1.7021      1.7856      1.8843    
  1.9947      2.1116      2.2279      2.3356      2.4261      2.4917      2.5261      2.5261      2.4917      2.4261    
  2.3356      2.2279      2.1116      1.9947      1.8843      1.7856      1.7021      1.6352      1.5848      1.5493    
  1.5264      1.5131      1.5064      1.5036      1.5028      1.5028      1.5036      1.5064      1.7776      1.7686    
  1.7669      1.7757      1.7975      1.8337      1.8843      1.9476      2.0206      2.0986      2.1758      2.2454    
  2.3011      2.3371      2.3496      2.3371      2.3011      2.2454      2.1758      2.0986      2.0206      1.9476    
  1.8843      1.8337      1.7975      1.7757      1.7669      1.7686      1.7776      1.7901      1.8024      1.8111    
  1.8143      1.8111      1.8023      1.7901      2.0972      2.0561      2.0206      1.9947      1.9811      1.9811    
  1.9947      2.0206      2.0561      2.0972      2.1391      2.1768      2.2052      2.2204      2.2204      2.2052    
  2.1768      2.1391      2.0972      2.0561      2.0206      1.9947      1.9810      1.9810      1.9947      2.0206    
  2.0561      2.0972      2.1391      2.1768      2.2052      2.2204      2.2204      2.2052      2.1768      2.1391    
  2.4722      2.3868      2.3068      2.2369      2.1802      2.1384      2.1116      2.0986      2.0972      2.1040    
  2.1154      2.1271      2.1359      2.1391      2.1359      2.1272      2.1154      2.1040      2.0972      2.0986    
  2.1116      2.1384      2.1802      2.2369      2.3068      2.3868      2.4722      2.5568      2.6336      2.6952    
  2.7352      2.7491      2.7352      2.6952      2.6336      2.5568      2.8985      2.7542      2.6173      2.4934    
  2.3863      2.2978      2.2279      2.1758      2.1391      2.1154      2.1013      2.0940      2.0911      2.0911    
  2.0941      2.1013      2.1153      2.1391      2.1757      2.2279      2.2977      2.3863      2.4934      2.6173    
  2.7542      2.8985      3.0423      3.1760      3.2890      3.3713      3.4147      3.4147      3.3713      3.2890    
  3.1760      3.0423      3.3656      3.1462      2.9394      2.7521      2.5882      2.4494      2.3356      2.2454    
  2.1768      2.1271      2.0940      2.0752      2.0691      2.0752      2.0940      2.1271      2.1767      2.2454    
  2.3356      2.4494      2.5882      2.7521      2.9394      3.1462      3.3657      3.5879      3.8003      3.9881    
  4.1363      4.2314      4.2642      4.2314      4.1363      3.9881      3.8003      3.5879      3.8553      3.5444    
  3.2560      2.9976      2.7728      2.5827      2.4261      2.3011      2.2052      2.1359      2.0911      2.0691    
  2.0691      2.0911      2.1358      2.2051      2.3010      2.4261      2.5827      2.7729      2.9976      3.2561    
  3.5445      3.8554      4.1769      4.4929      4.7835      5.0272      5.2035      5.2962      5.2962      5.2035    
  5.0272      4.7835      4.4929      4.1769      4.3415      3.9253      3.5467      3.2130      2.9267      2.6871    
  2.4917      2.3371      2.2204      2.1391      2.0911      2.0752      2.0911      2.1390      2.2204      2.3370    
  2.4916      2.6871      2.9268      3.2131      3.5467      3.9253      4.3415      4.7821      5.2272      5.6513    
  6.0251      6.3191      6.5074      6.5723      6.5074      6.3192      6.0252      5.6513      5.2272      4.7821    
  4.7917      4.2617      3.7898      3.3817      3.0375      2.7538      2.5261      2.3496      2.2204      2.1359    
  2.0941      2.0940      2.1358      2.2204      2.3495      2.5260      2.7539      3.0375      3.3817      3.7898    
  4.2617      4.7918      5.3664      5.9631      6.5506      7.0911      7.5441      7.8714      8.0433      8.0433    
  7.8714      7.5441      7.0911      6.5506      5.9631      5.3664      5.1709      4.5264      3.9651      3.4893    
  3.0955      2.7768      2.5261      2.3371      2.2052      2.1272      2.1013      2.1271      2.2051      2.3370    
  2.5260      2.7768      3.0955      3.4894      3.9651      4.5265      5.1709      5.8865      6.6498      7.4249    
  8.1657      8.8197      9.3342      9.6638      9.7773      9.6638      9.3342      8.8196      8.1657      7.4249    
  6.6498      5.8865      5.4456      4.6960      4.0571      3.5264      3.0955      2.7538      2.4917      2.3011    
  2.1768      2.1154      2.1153      2.1767      2.3010      2.4916      2.7539      3.0955      3.5264      4.0571    
  4.6960      5.4456      6.2981      7.2312      8.2071      9.1729      10.065      10.814      11.357      11.643    
  11.643      11.357      10.814      10.065      9.1729      8.2071      7.2312      6.2981      5.5902      4.7544    
  4.0571      3.4893      3.0375      2.6871      2.4261      2.2454      2.1391      2.1040      2.1391      2.2454    
  2.4261      2.6871      3.0375      3.4894      4.0571      4.7544      5.5902      6.5626      7.6542      8.8283    
  10.029      11.183      12.208      13.018      13.540      13.719      13.539      13.018      12.208      11.183    
  10.029      8.8283      7.6542      6.5626      5.5902      4.6960      3.9651      3.3817      2.9267      2.5827    
  2.3356      2.1758      2.0972      2.0972      2.1757      2.3356      2.5827      2.9268      3.3817      3.9651    
  4.6960      5.5902      6.6539      7.8772      9.2286      10.653      12.075      13.398      14.520      15.338    
  15.771      15.771      15.338      14.520      13.398      12.075      10.653      9.2285      7.8771      6.6538    
  5.4456      4.5264      3.7898      3.2130      2.7728      2.4494      2.2279      2.0986      2.0561      2.0986    
  2.2279      2.4494      2.7729      3.2131      3.7898      4.5265      5.4456      6.5626      7.8772      9.3669    
  10.983      12.651      14.271      15.725      16.888      17.641      17.903      17.641      16.887      15.725    
  14.271      12.651      10.983      9.3668      7.8771      6.5626      5.1709      4.2617      3.5467      2.9976    
  2.5882      2.2978      2.1116      2.0206      2.0206      2.1116      2.2977      2.5882      2.9976      3.5467    
  4.2617      5.1709      6.2981      7.6542      9.2286      10.983      12.851      14.734      16.509      18.033    
  19.157      19.754      19.754      19.157      18.033      16.509      14.733      12.850      10.983      9.2285    
  7.6542      6.2981      4.7918      3.9253      3.2560      2.7521      2.3863      2.1384      1.9947      1.9476    
  1.9947      2.1384      2.3863      2.7521      3.2561      3.9253      4.7918      5.8865      7.2312      8.8283    
  10.653      12.651      14.734      16.781      18.644      20.147      21.125      21.465      21.125      20.147    
  18.644      16.781      14.734      12.651      10.653      8.8283      7.2312      5.8865      4.3416      3.5444    
  2.9394      2.4934      2.1802      1.9811      1.8843      1.8843      1.9810      2.1802      2.4934      2.9394    
  3.5445      4.3415      5.3664      6.6498      8.2071      10.029      12.075      14.271      16.509      18.644    
  20.491      21.856      22.582      22.582      21.856      20.491      18.644      16.509      14.271      12.075    
  10.029      8.2070      6.6498      5.3664      3.8554      3.1462      2.6172      2.2368      1.9811      1.8337    
  1.7856      1.8337      1.9810      2.2369      2.6173      3.1462      3.8554      4.7821      5.9631      7.4249    
  9.1729      11.183      13.398      15.725      18.033      20.147      21.856      22.971      23.358      22.971    
  21.856      20.147      18.033      15.725      13.398      11.183      9.1728      7.4249      5.9632      4.7821    
  3.3657      2.7542      2.3067      1.9947      1.7975      1.7021      1.7021      1.7975      1.9947      2.3068    
  2.7542      3.3657      4.1769      5.2272      6.5506      8.1657      10.065      12.208      14.520      16.888    
  19.157      21.125      22.582      23.358      23.358      22.582      21.125      19.157      16.888      14.520    
  12.208      10.065      8.1657      6.5507      5.2273      4.1770      2.8985      2.3868      2.0206      1.7757    
  1.6352      1.5895      1.6352      1.7757      2.0206      2.3868      2.8985      3.5879      4.4929      5.6513    
  7.0911      8.8197      10.814      13.018      15.338      17.641      19.754      21.465      22.582      22.971    
  22.582      21.465      19.754      17.641      15.338      13.018      10.814      8.8196      7.0912      5.6514    
  4.4930      3.5879      2.4721      2.0560      1.7669      1.5848      1.4969      1.4969      1.5848      1.7669    
  2.0561      2.4722      3.0423      3.8003      4.7835      6.0251      7.5441      9.3342      11.357      13.540    
  15.771      17.903      19.754      21.125      21.856      21.856      21.125      19.754      17.903      15.771    
  13.540      11.357      9.3342      7.5441      6.0253      4.7836      3.8004      3.0423      2.0971      1.7686    
  1.5493      1.4239      1.3831      1.4239      1.5493      1.7686      2.0972      2.5568      3.1760      3.9881    
  5.0272      6.3191      7.8714      9.6638      11.643      13.719      15.771      17.641      19.157      20.147    
  20.491      20.147      19.157      17.641      15.771      13.719      11.643      9.6638      7.8715      6.3193    
  5.0274      3.9882      3.1760      2.5568      1.7776      1.5264      1.3685      1.2924      1.2924      1.3685    
  1.5264      1.7776      2.1391      2.6336      3.2890      4.1363      5.2035      6.5074      8.0433      9.7773    
  11.643      13.539      15.338      16.887      18.033      18.644      18.644      18.033      16.888      15.338    
  13.540      11.643      9.7773      8.0434      6.5076      5.2037      4.1364      3.2890      2.6336      2.1391    
  1.5131      1.3281      1.2225      1.1882      1.2225      1.3281      1.5131      1.7901      2.1768      2.6952    
  3.3713      4.2314      5.2962      6.5723      8.0433      9.6638      11.357      13.018      14.520      15.725    
  16.509      16.781      16.509      15.725      14.520      13.018      11.357      9.6638      8.0434      6.5724    
  5.2964      4.2315      3.3713      2.6952      2.1767      1.7901      1.3002      1.1707      1.1083      1.1083    
  1.1707      1.3002      1.5064      1.8024      2.2052      2.7352      3.4147      4.2642      5.2962      6.5074    
  7.8714      9.3342      10.814      12.208      13.398      14.271      14.733      14.734      14.271      13.398    
  12.208      10.814      9.3342      7.8715      6.5076      5.2964      4.2643      3.4147      2.7352      2.2051    
  1.8023      1.5063      1.1344      1.0498      1.0224      1.0498      1.1343      1.2823      1.5036      1.8111    
  2.2204      2.7491      3.4147      4.2314      5.2035      6.3192      7.5441      8.8196      10.065      11.183    
  12.075      12.651      12.850      12.651      12.075      11.183      10.065      8.8196      7.5441      6.3193    
  5.2037      4.2315      3.4147      2.7490      2.2204      1.8111      1.5036      1.2823      1.0101     0.96135    