   2   2   0   0
  0.2112625E+02  0.3909511E-09  0.3909511E-09  0.3909511E-09  0.5000000E-15
  1.000000000000000E-004
  CAR 
 unknown system                          
     16.45420829     -8.25386897  301      5.64634554      1.00000000
     -8.254  0.0000E+00  0.0000E+00
     -8.172  0.0000E+00  0.0000E+00
     -8.089  0.0000E+00  0.0000E+00
     -8.007  0.0000E+00  0.0000E+00
     -7.924  0.0000E+00  0.0000E+00
     -7.842  0.0000E+00  0.0000E+00
     -7.760  0.0000E+00  0.0000E+00
     -7.677  0.0000E+00  0.0000E+00
     -7.595  0.0000E+00  0.0000E+00
     -7.513  0.0000E+00  0.0000E+00
     -7.430  0.3510E-18  0.2891E-19
     -7.348  0.3194E-16  0.2660E-17
     -7.266  0.2646E-14  0.2206E-15
     -7.183  0.1557E-12  0.1305E-13
     -7.101  0.6569E-11  0.5540E-12
     -7.018  0.1989E-09  0.1693E-10
     -6.936  0.4328E-08  0.3734E-09
     -6.854  0.6792E-07  0.5968E-08
     -6.771  0.7716E-06  0.6952E-07
     -6.689  0.6385E-05  0.5954E-06
     -6.607  0.3885E-04  0.3795E-05
     -6.524  0.1761E-03  0.1830E-04
     -6.442  0.6058E-03  0.6820E-04
     -6.360  0.1616E-02  0.2013E-03
     -6.277  0.3425E-02  0.4834E-03
     -6.195  0.5926E-02  0.9714E-03
     -6.113  0.8656E-02  0.1684E-02
     -6.030  0.1118E-01  0.2605E-02
     -5.948  0.1348E-01  0.3715E-02
     -5.865  0.1569E-01  0.5008E-02
     -5.783  0.1761E-01  0.6458E-02
     -5.701  0.1884E-01  0.8010E-02
     -5.618  0.1972E-01  0.9634E-02
     -5.536  0.2132E-01  0.1139E-01
     -5.454  0.2383E-01  0.1335E-01
     -5.371  0.2591E-01  0.1549E-01
     -5.289  0.2647E-01  0.1767E-01
     -5.207  0.2636E-01  0.1984E-01
     -5.124  0.2720E-01  0.2208E-01
     -5.042  0.2921E-01  0.2448E-01
     -4.959  0.3155E-01  0.2708E-01
     -4.877  0.3383E-01  0.2987E-01
     -4.795  0.3596E-01  0.3283E-01
     -4.712  0.3735E-01  0.3591E-01
     -4.630  0.3738E-01  0.3898E-01
     -4.548  0.3660E-01  0.4200E-01
     -4.465  0.3716E-01  0.4506E-01
     -4.383  0.4128E-01  0.4846E-01
     -4.301  0.4822E-01  0.5243E-01
     -4.218  0.5421E-01  0.5690E-01
     -4.136  0.5675E-01  0.6157E-01
     -4.053  0.5703E-01  0.6627E-01
     -3.971  0.5711E-01  0.7097E-01
     -3.889  0.5677E-01  0.7564E-01
     -3.806  0.5437E-01  0.8012E-01
     -3.724  0.5026E-01  0.8426E-01
     -3.642  0.4805E-01  0.8822E-01
     -3.559  0.5076E-01  0.9240E-01
     -3.477  0.5600E-01  0.9701E-01
     -3.395  0.5766E-01  0.1018E+00
     -3.312  0.5237E-01  0.1061E+00
     -3.230  0.4253E-01  0.1096E+00
     -3.148  0.3306E-01  0.1123E+00
     -3.065  0.2721E-01  0.1145E+00
     -2.983  0.2592E-01  0.1167E+00
     -2.900  0.2899E-01  0.1191E+00
     -2.818  0.3467E-01  0.1219E+00
     -2.736  0.3894E-01  0.1251E+00
     -2.653  0.3758E-01  0.1282E+00
     -2.571  0.2969E-01  0.1307E+00
     -2.489  0.1866E-01  0.1322E+00
     -2.406  0.9130E-02  0.1330E+00
     -2.324  0.3460E-02  0.1332E+00
     -2.242  0.1315E-02  0.1333E+00
     -2.159  0.1922E-02  0.1335E+00
     -2.077  0.6006E-02  0.1340E+00
     -1.994  0.1509E-01  0.1352E+00
     -1.912  0.2795E-01  0.1375E+00
     -1.830  0.3851E-01  0.1407E+00
     -1.747  0.4076E-01  0.1441E+00
     -1.665  0.3593E-01  0.1470E+00
     -1.583  0.3170E-01  0.1496E+00
     -1.500  0.3501E-01  0.1525E+00
     -1.418  0.4708E-01  0.1564E+00
     -1.336  0.6332E-01  0.1616E+00
     -1.253  0.7674E-01  0.1679E+00
     -1.171  0.8302E-01  0.1748E+00
     -1.089  0.8158E-01  0.1815E+00
     -1.006  0.7287E-01  0.1875E+00
     -0.924  0.5965E-01  0.1924E+00
     -0.841  0.4865E-01  0.1964E+00
     -0.759  0.4457E-01  0.2001E+00
     -0.677  0.4381E-01  0.2037E+00
     -0.594  0.3946E-01  0.2069E+00
     -0.512  0.3120E-01  0.2095E+00
     -0.430  0.2515E-01  0.2116E+00
     -0.347  0.2562E-01  0.2137E+00
     -0.265  0.3126E-01  0.2163E+00
     -0.183  0.3729E-01  0.2193E+00
     -0.100  0.3851E-01  0.2225E+00
     -0.018  0.3300E-01  0.2252E+00
      0.065  0.2418E-01  0.2272E+00
      0.147  0.1786E-01  0.2287E+00
      0.229  0.1740E-01  0.2301E+00
      0.312  0.2173E-01  0.2319E+00
      0.394  0.2607E-01  0.2341E+00
      0.476  0.2557E-01  0.2362E+00
      0.559  0.1996E-01  0.2378E+00
      0.641  0.1369E-01  0.2389E+00
      0.723  0.1096E-01  0.2398E+00
      0.806  0.1215E-01  0.2408E+00
      0.888  0.1560E-01  0.2421E+00
      0.970  0.2072E-01  0.2438E+00
      1.053  0.2759E-01  0.2461E+00
      1.135  0.3530E-01  0.2490E+00
      1.218  0.4254E-01  0.2525E+00
      1.300  0.4873E-01  0.2565E+00
      1.382  0.5475E-01  0.2610E+00
      1.465  0.6268E-01  0.2662E+00
      1.547  0.7291E-01  0.2722E+00
      1.629  0.8150E-01  0.2789E+00
      1.712  0.8364E-01  0.2858E+00
      1.794  0.7938E-01  0.2924E+00
      1.876  0.7357E-01  0.2984E+00
      1.959  0.7063E-01  0.3042E+00
      2.041  0.7089E-01  0.3101E+00
      2.124  0.7186E-01  0.3160E+00
      2.206  0.7255E-01  0.3220E+00
      2.288  0.7560E-01  0.3282E+00
      2.371  0.8397E-01  0.3351E+00
      2.453  0.9534E-01  0.3430E+00
      2.535  0.1020E+00  0.3514E+00
      2.618  0.9984E-01  0.3596E+00
      2.700  0.9485E-01  0.3674E+00
      2.782  0.9504E-01  0.3752E+00
      2.865  0.9959E-01  0.3834E+00
      2.947  0.1013E+00  0.3918E+00
      3.029  0.9779E-01  0.3998E+00
      3.112  0.9490E-01  0.4076E+00
      3.194  0.9867E-01  0.4158E+00
      3.277  0.1057E+00  0.4245E+00
      3.359  0.1058E+00  0.4332E+00
      3.441  0.9484E-01  0.4410E+00
      3.524  0.8011E-01  0.4476E+00
      3.606  0.7294E-01  0.4536E+00
      3.688  0.7771E-01  0.4600E+00
      3.771  0.8846E-01  0.4673E+00
      3.853  0.9510E-01  0.4751E+00
      3.935  0.9208E-01  0.4827E+00
      4.018  0.8134E-01  0.4894E+00
      4.100  0.6928E-01  0.4951E+00
      4.183  0.6185E-01  0.5002E+00
      4.265  0.5997E-01  0.5051E+00
      4.347  0.5835E-01  0.5099E+00
      4.430  0.5135E-01  0.5142E+00
      4.512  0.4014E-01  0.5175E+00
      4.594  0.3119E-01  0.5200E+00
      4.677  0.2826E-01  0.5224E+00
      4.759  0.2863E-01  0.5247E+00
      4.841  0.2730E-01  0.5270E+00
      4.924  0.2266E-01  0.5288E+00
      5.006  0.1702E-01  0.5302E+00
      5.088  0.1271E-01  0.5313E+00
      5.171  0.9757E-02  0.5321E+00
      5.253  0.7131E-02  0.5327E+00
      5.336  0.4473E-02  0.5331E+00
      5.418  0.2248E-02  0.5332E+00
      5.500  0.8712E-03  0.5333E+00
      5.583  0.2566E-03  0.5333E+00
      5.665  0.7688E-04  0.5333E+00
      5.747  0.1467E-03  0.5333E+00
      5.830  0.6287E-03  0.5334E+00
      5.912  0.2077E-02  0.5336E+00
      5.994  0.5047E-02  0.5340E+00
      6.077  0.9173E-02  0.5347E+00
      6.159  0.1298E-01  0.5358E+00
      6.242  0.1566E-01  0.5371E+00
      6.324  0.1862E-01  0.5386E+00
      6.406  0.2390E-01  0.5406E+00
      6.489  0.3088E-01  0.5431E+00
      6.571  0.3658E-01  0.5462E+00
      6.653  0.3996E-01  0.5494E+00
      6.736  0.4354E-01  0.5530E+00
      6.818  0.4912E-01  0.5571E+00
      6.900  0.5477E-01  0.5616E+00
      6.983  0.5808E-01  0.5664E+00
      7.065  0.5948E-01  0.5713E+00
      7.147  0.6184E-01  0.5764E+00
      7.230  0.6906E-01  0.5821E+00
      7.312  0.8377E-01  0.5890E+00
      7.395  0.1032E+00  0.5974E+00
      7.477  0.1178E+00  0.6072E+00
      7.559  0.1192E+00  0.6170E+00
      7.642  0.1083E+00  0.6259E+00
      7.724  0.9432E-01  0.6337E+00
      7.806  0.8579E-01  0.6407E+00
      7.889  0.8461E-01  0.6477E+00
      7.971  0.8589E-01  0.6548E+00
      8.053  0.8363E-01  0.6617E+00
      8.136  0.7733E-01  0.6680E+00
      8.218  0.7174E-01  0.6739E+00
      8.301  0.7232E-01  0.6799E+00
      8.383  0.8256E-01  0.6867E+00
      8.465  0.1018E+00  0.6951E+00
      8.548  0.1230E+00  0.7052E+00
      8.630  0.1363E+00  0.7164E+00
      8.712  0.1369E+00  0.7277E+00
      8.795  0.1293E+00  0.7384E+00
      8.877  0.1209E+00  0.7483E+00
      8.959  0.1148E+00  0.7578E+00
      9.042  0.1087E+00  0.7667E+00
      9.124  0.1016E+00  0.7751E+00
      9.207  0.9504E-01  0.7829E+00
      9.289  0.9030E-01  0.7904E+00
      9.371  0.8732E-01  0.7975E+00
      9.454  0.8620E-01  0.8046E+00
      9.536  0.8616E-01  0.8117E+00
      9.618  0.8611E-01  0.8188E+00
      9.701  0.8652E-01  0.8260E+00
      9.783  0.8798E-01  0.8332E+00
      9.865  0.8929E-01  0.8406E+00
      9.948  0.9034E-01  0.8480E+00
     10.030  0.9379E-01  0.8557E+00
     10.112  0.9958E-01  0.8639E+00
     10.195  0.1016E+00  0.8723E+00
     10.277  0.9455E-01  0.8801E+00
     10.360  0.8125E-01  0.8868E+00
     10.442  0.6938E-01  0.8925E+00
     10.524  0.6330E-01  0.8977E+00
     10.607  0.6152E-01  0.9028E+00
     10.689  0.6203E-01  0.9079E+00
     10.771  0.6694E-01  0.9134E+00
     10.854  0.7842E-01  0.9198E+00
     10.936  0.9238E-01  0.9275E+00
     11.018  0.1013E+00  0.9358E+00
     11.101  0.1013E+00  0.9441E+00
     11.183  0.9252E-01  0.9518E+00
     11.266  0.7747E-01  0.9581E+00
     11.348  0.6109E-01  0.9632E+00
     11.430  0.4958E-01  0.9673E+00
     11.513  0.4637E-01  0.9711E+00
     11.595  0.4874E-01  0.9751E+00
     11.677  0.5003E-01  0.9792E+00
     11.760  0.4691E-01  0.9831E+00
     11.842  0.4306E-01  0.9866E+00
     11.924  0.4504E-01  0.9903E+00
     12.007  0.5652E-01  0.9950E+00
     12.089  0.7407E-01  0.1001E+01
     12.171  0.8697E-01  0.1008E+01
     12.254  0.8513E-01  0.1015E+01
     12.336  0.6877E-01  0.1021E+01
     12.419  0.4736E-01  0.1025E+01
     12.501  0.3113E-01  0.1027E+01
     12.583  0.2511E-01  0.1029E+01
     12.666  0.2723E-01  0.1032E+01
     12.748  0.3054E-01  0.1034E+01
     12.830  0.3035E-01  0.1037E+01
     12.913  0.2853E-01  0.1039E+01
     12.995  0.2901E-01  0.1041E+01
     13.077  0.3202E-01  0.1044E+01
     13.160  0.3554E-01  0.1047E+01
     13.242  0.3856E-01  0.1050E+01
     13.325  0.3966E-01  0.1053E+01
     13.407  0.3576E-01  0.1056E+01
     13.489  0.2600E-01  0.1059E+01
     13.572  0.1446E-01  0.1060E+01
     13.654  0.6021E-02  0.1060E+01
     13.736  0.2045E-02  0.1060E+01
     13.819  0.1320E-02  0.1061E+01
     13.901  0.2700E-02  0.1061E+01
     13.983  0.5461E-02  0.1061E+01
     14.066  0.8214E-02  0.1062E+01
     14.148  0.9301E-02  0.1063E+01
     14.230  0.8769E-02  0.1063E+01
     14.313  0.8393E-02  0.1064E+01
     14.395  0.8930E-02  0.1065E+01
     14.478  0.8954E-02  0.1066E+01
     14.560  0.7160E-02  0.1066E+01
     14.642  0.4269E-02  0.1066E+01
     14.725  0.1860E-02  0.1067E+01
     14.807  0.5891E-03  0.1067E+01
     14.889  0.1353E-03  0.1067E+01
     14.972  0.2250E-04  0.1067E+01
     15.054  0.2706E-05  0.1067E+01
     15.136  0.2351E-06  0.1067E+01
     15.219  0.1473E-07  0.1067E+01
     15.301  0.6652E-09  0.1067E+01
     15.384  0.2161E-10  0.1067E+01
     15.466  0.5049E-12  0.1067E+01
     15.548  0.8471E-14  0.1067E+01
     15.631  0.1011E-15  0.1067E+01
     15.713  0.0000E+00  0.1067E+01
     15.795  0.0000E+00  0.1067E+01
     15.878  0.0000E+00  0.1067E+01
     15.960  0.0000E+00  0.1067E+01
     16.042  0.0000E+00  0.1067E+01
     16.125  0.0000E+00  0.1067E+01
     16.207  0.0000E+00  0.1067E+01
     16.289  0.0000E+00  0.1067E+01
     16.372  0.0000E+00  0.1067E+01
     16.454  0.0000E+00  0.1067E+01
