    2    2   15    1
  0.2112625E+02  0.3909511E-09  0.3909511E-09  0.3909511E-09  0.5000000E-15
  1.000000000000000E-004
  CAR 
 unknown system                          
      8     60      8
 
  0.6250000E-01  0.6250000E-01  0.6250000E-01  0.3906250E-02
    1       -6.253869   1.000000
    2        4.758105   1.000000
    3        5.214852   0.998860
    4        5.214852   0.998860
    5        7.819436   0.000000
    6        7.955118   0.000000
    7        7.955118   0.000000
    8        8.529678   0.000000
 
  0.1875000E+00  0.6250000E-01  0.6250000E-01  0.1171875E-01
    1       -5.995114   1.000000
    2        3.269658   1.000000
    3        4.441067   1.000000
    4        5.098194   0.999947
    5        7.834174   0.000000
    6        8.193636   0.000000
    7        8.455654   0.000000
    8       10.055858   0.000000
 
  0.3125000E+00  0.6250000E-01  0.6250000E-01  0.1171875E-01
    1       -5.371696   1.000000
    2        1.111529   1.000000
    3        3.962964   1.000000
    4        4.651294   1.000000
    5        7.381260   0.000000
    6        8.684962   0.000000
    7        8.960055   0.000000
    8       11.670317   0.000000
 
  0.4375000E+00  0.6250000E-01  0.6250000E-01  0.1171875E-01
    1       -4.507081   1.000000
    2       -0.708139   1.000000
    3        3.748128   1.000000
    4        4.257927   1.000000
    5        7.068674   0.000000
    6        8.769783   0.000000
    7        8.783500   0.000000
    8       12.976022   0.000000
 
 -0.4375000E+00  0.6250000E-01  0.6250000E-01  0.1171875E-01
    1       -4.083073   1.000000
    2       -1.376790   1.000000
    3        3.792505   1.000000
    4        4.048643   1.000000
    5        6.990508   0.000000
    6        8.587865   0.000000
    7        8.849091   0.000000
    8       13.080441   0.000000
 
 -0.3125000E+00  0.6250000E-01  0.6250000E-01  0.1171875E-01
    1       -4.802110   1.000000
    2       -0.171634   1.000000
    3        4.068946   1.000000
    4        4.071632   1.000000
    5        7.158760   0.000000
    6        8.580809   0.000000
    7        9.086559   0.000000
    8       12.117427   0.000000
 
 -0.1875000E+00  0.6250000E-01  0.6250000E-01  0.1171875E-01
    1       -5.615874   1.000000
    2        1.818448   1.000000
    3        4.341688   1.000000
    4        4.519879   1.000000
    5        7.524221   0.000000
    6        8.406181   0.000000
    7        9.114896   0.000000
    8       10.907289   0.000000
 
 -0.6250000E-01  0.6250000E-01  0.6250000E-01  0.1171875E-01
    1       -6.123785   1.000000
    2        4.005732   1.000000
    3        4.807800   1.000000
    4        4.950826   1.000000
    5        7.674139   0.000000
    6        8.158710   0.000000
    7        8.511288   0.000000
    8        9.305243   0.000000
 
  0.1875000E+00  0.1875000E+00  0.6250000E-01  0.1171875E-01
    1       -5.864842   1.000000
    2        3.110858   1.000000
    3        4.271889   1.000000
    4        4.340971   1.000000
    5        7.271023   0.000000
    6        8.878443   0.000000
    7        9.340486   0.000000
    8        9.793996   0.000000
 
  0.3125000E+00  0.1875000E+00  0.6250000E-01  0.2343750E-01
    1       -5.358967   1.000000
    2        1.647453   1.000000
    3        3.334943   1.000000
    4        4.092581   1.000000
    5        7.432713   0.000000
    6        8.982367   0.000000
    7        9.742153   0.000000
    8       10.116817   0.000000
 
  0.4375000E+00  0.1875000E+00  0.6250000E-01  0.2343750E-01
    1       -4.546884   1.000000
    2       -0.138635   1.000000
    3        2.841865   1.000000
    4        3.701628   1.000000
    5        7.608024   0.000000
    6        8.977721   0.000000
    7       10.144986   0.000000
    8       10.454753   0.000000
 
 -0.4375000E+00  0.1875000E+00  0.6250000E-01  0.2343750E-01
    1       -3.823045   1.000000
    2       -1.293400   1.000000
    3        2.558166   1.000000
    4        3.613533   1.000000
    5        7.657398   0.000000
    6        8.717970   0.000000
    7       10.011353   0.000000
    8       12.394927   0.000000
 
 -0.3125000E+00  0.1875000E+00  0.6250000E-01  0.2343750E-01
    1       -4.256977   1.000000
    2       -0.636015   1.000000
    3        2.493911   1.000000
    4        3.885227   1.000000
    5        7.902427   0.000000
    6        8.655582   0.000000
    7        9.951076   0.000000
    8       11.673408   0.000000
 
 -0.1875000E+00  0.1875000E+00  0.6250000E-01  0.2343750E-01
    1       -5.120460   1.000000
    2        1.021831   1.000000
    3        2.800163   1.000000
    4        4.371171   1.000000
    5        8.215395   0.000000
    6        8.541307   0.000000
    7        9.823231   0.000000
    8       10.321557   0.000000
 
 -0.6250000E-01  0.1875000E+00  0.6250000E-01  0.2343750E-01
    1       -5.739171   1.000000
    2        2.464528   1.000000
    3        3.885153   1.000000
    4        4.728963   1.000000
    5        7.802543   0.000000
    6        8.377906   0.000000
    7        9.160179   0.000000
    8       10.332493   0.000000
 
  0.3125000E+00  0.3125000E+00  0.6250000E-01  0.1171875E-01
    1       -4.972056   1.000000
    2        1.133581   1.000000
    3        3.199055   1.000000
    4        3.316294   1.000000
    5        6.491109   0.000000
    6        8.123344   0.000000
    7       11.130837   0.000000
    8       11.286947   0.000000
 
  0.4375000E+00  0.3125000E+00  0.6250000E-01  0.2343750E-01
    1       -4.247863   1.000000
    2       -0.065464   1.000000
    3        2.444460   1.000000
    4        2.983998   1.000000
    5        6.798956   0.000000
    6        7.966311   0.000000
    7       11.096963   0.000000
    8       12.247937   0.000000
 
 -0.4375000E+00  0.3125000E+00  0.6250000E-01  0.2343750E-01
    1       -3.389105   1.000000
    2       -1.212830   1.000000
    3        1.636782   1.000000
    4        2.953103   1.000000
    5        7.032501   0.000000
    6        9.578481   0.000000
    7       10.683554   0.000000
    8       12.160840   0.000000
 
 -0.3125000E+00  0.3125000E+00  0.6250000E-01  0.2343750E-01
    1       -3.459849   1.000000
    2       -1.120742   1.000000
    3        1.301669   1.000000
    4        3.282950   1.000000
    5        7.415079   0.000000
    6       10.269153   0.000000
    7       11.508131   0.000000
    8       11.873389   0.000000
 
 -0.1875000E+00  0.3125000E+00  0.6250000E-01  0.2343750E-01
    1       -4.318237   1.000000
    2       -0.190558   1.000000
    3        1.876151   1.000000
    4        3.843570   1.000000
    5        7.999438   0.000000
    6        9.193576   0.000000
    7       10.559755   0.000000
    8       10.870406   0.000000
 
 -0.6250000E-01  0.3125000E+00  0.6250000E-01  0.2343750E-01
    1       -5.012077   1.000000
    2        0.454481   1.000000
    3        3.434693   1.000000
    4        4.274508   1.000000
    5        7.661597   0.000000
    6        8.583363   0.000000
    7        9.422199   0.000000
    8       11.077934   0.000000
 
  0.4375000E+00  0.4375000E+00  0.6250000E-01  0.1171875E-01
    1       -3.616403   1.000000
    2       -0.903865   1.000000
    3        2.537204   1.000000
    4        2.742426   1.000000
    5        6.118871   0.000417
    6        6.823653   0.000000
    7       13.357545   0.000000
    8       13.388041   0.000000
 
 -0.4375000E+00  0.4375000E+00  0.6250000E-01  0.2343750E-01
    1       -2.741043   1.000000
    2       -1.861067   1.000000
    3        2.007150   1.000000
    4        2.511642   1.000000
    5        6.541862   0.000000
    6        7.247421   0.000000
    7       13.129793   0.000000
    8       14.081582   0.000000
 
 -0.3125000E+00  0.4375000E+00  0.6250000E-01  0.2343750E-01
    1       -2.843666   1.000000
    2       -1.694771   1.000000
    3        1.312332   1.000000
    4        2.814605   1.000000
    5        6.892089   0.000000
    6        9.422414   0.000000
    7       11.649476   0.000000
    8       12.744809   0.000000
 
 -0.1875000E+00  0.4375000E+00  0.6250000E-01  0.2343750E-01
    1       -3.575547   1.000000
    2       -1.266421   1.000000
    3        1.818456   1.000000
    4        3.391919   1.000000
    5        7.524267   0.000000
    6        9.432680   0.000000
    7       10.925773   0.000000
    8       12.153407   0.000000
 
 -0.6250000E-01  0.4375000E+00  0.6250000E-01  0.2343750E-01
    1       -4.160470   1.000000
    2       -1.098273   1.000000
    3        3.258059   1.000000
    4        3.953429   1.000000
    5        7.451643   0.000000
    6        8.522603   0.000000
    7        9.261218   0.000000
    8       12.716428   0.000000
 
 -0.4375000E+00 -0.4375000E+00  0.6250000E-01  0.1171875E-01
    1       -2.788272   1.000000
    2       -1.876394   1.000000
    3        2.404346   1.000000
    4        2.625103   1.000000
    5        6.122194   0.000383
    6        6.472625   0.000000
    7       14.403602   0.000000
    8       14.454208   0.000000
 
 -0.3125000E+00 -0.4375000E+00  0.6250000E-01  0.2343750E-01
    1       -3.535469   1.000000
    2       -0.966224   1.000000
    3        2.156852   1.000000
    4        2.666042   1.000000
    5        6.621834   0.000000
    6        7.495776   0.000000
    7       12.087802   0.000000
    8       13.367835   0.000000
 
 -0.1875000E+00 -0.4375000E+00  0.6250000E-01  0.2343750E-01
    1       -3.993899   1.000000
    2       -0.684017   1.000000
    3        2.199175   1.000000
    4        3.241782   1.000000
    5        7.294370   0.000000
    6        9.754317   0.000000
    7        9.918118   0.000000
    8       11.136626   0.000000
 
 -0.3125000E+00 -0.3125000E+00  0.6250000E-01  0.1171875E-01
    1       -4.348210   1.000000
    2        0.108329   1.000000
    3        2.802550   1.000000
    4        2.974655   1.000000
    5        6.240307   0.000013
    6        7.386923   0.000000
    7       12.227742   0.000000
    8       12.324359   0.000000
 
 -0.1875000E+00 -0.3125000E+00  0.6250000E-01  0.2343750E-01
    1       -4.859394   1.000000
    2        0.808640   1.000000
    3        2.845876   1.000000
    4        3.470987   1.000000
    5        7.075848   0.000000
    6        8.611875   0.000000
    7       10.180819   0.000000
    8       11.152661   0.000000
 
 -0.1875000E+00 -0.1875000E+00  0.6250000E-01  0.1171875E-01
    1       -5.479586   1.000000
    2        2.143750   1.000000
    3        3.720739   1.000000
    4        3.756333   1.000000
    5        6.848844   0.000000
    6        8.915322   0.000000
    7       10.129940   0.000000
    8       10.285559   0.000000
 
  0.1875000E+00  0.1875000E+00  0.1875000E+00  0.3906250E-02
    1       -5.868124   1.000000
    2        2.571463   1.000000
    3        4.789447   1.000000
    4        4.789447   1.000000
    5        7.382105   0.000000
    6        8.554107   0.000000
    7        8.554107   0.000000
    8       10.679077   0.000000
 
  0.3125000E+00  0.1875000E+00  0.1875000E+00  0.1171875E-01
    1       -5.489711   1.000000
    2        1.736578   1.000000
    3        3.333388   1.000000
    4        4.802227   1.000000
    5        8.034581   0.000000
    6        8.676891   0.000000
    7        8.949990   0.000000
    8       10.851250   0.000000
 
  0.4375000E+00  0.1875000E+00  0.1875000E+00  0.1171875E-01
    1       -4.770068   1.000000
    2        0.398503   1.000000
    3        2.291402   1.000000
    4        4.316443   1.000000
    5        7.934522   0.000000
    6        9.414676   0.000000
    7        9.597600   0.000000
    8       11.137171   0.000000
 
 -0.4375000E+00  0.1875000E+00  0.1875000E+00  0.1171875E-01
    1       -3.914542   1.000000
    2       -1.026983   1.000000
    3        2.130745   1.000000
    4        3.805907   1.000000
    5        7.476966   0.000000
    6        9.556682   0.000000
    7        9.815611   0.000000
    8       12.966309   0.000000
 
 -0.3125000E+00  0.1875000E+00  0.1875000E+00  0.1171875E-01
    1       -3.899074   1.000000
    2       -1.054677   1.000000
    3        2.415291   1.000000
    4        3.501023   1.000000
    5        7.222871   0.000000
    6        9.613766   0.000000
    7       10.152832   0.000000
    8       11.095326   0.000000
 
 -0.1875000E+00  0.1875000E+00  0.1875000E+00  0.1171875E-01
    1       -4.752996   1.000000
    2        0.395405   1.000000
    3        3.009322   1.000000
    4        3.480240   1.000000
    5        7.161272   0.000000
    6        9.277246   0.000000
    7        9.907331   0.000000
    8       10.498954   0.000000
 
  0.3125000E+00  0.3125000E+00  0.1875000E+00  0.1171875E-01
    1       -5.242042   1.000000
    2        1.094926   1.000000
    3        3.802158   1.000000
    4        3.884087   1.000000
    5        7.520135   0.000000
    6        8.804367   0.000000
    7        9.771250   0.000000
    8       10.172701   0.000000
 
  0.4375000E+00  0.3125000E+00  0.1875000E+00  0.2343750E-01
    1       -4.638298   1.000000
    2        0.325176   1.000000
    3        2.346474   1.000000
    4        3.693573   1.000000
    5        8.016146   0.000000
    6        8.988441   0.000000
    7        9.543145   0.000000
    8       10.982567   0.000000
 
 -0.4375000E+00  0.3125000E+00  0.1875000E+00  0.2343750E-01
    1       -3.782328   1.000000
    2       -0.749151   1.000000
    3        1.589824   1.000000
    4        3.151861   1.000000
    5        8.457883   0.000000
    6        8.935342   0.000000
    7       10.178072   0.000000
    8       12.050433   0.000000
 
 -0.3125000E+00  0.3125000E+00  0.1875000E+00  0.2343750E-01
    1       -3.317534   1.000000
    2       -1.334425   1.000000
    3        1.586926   1.000000
    4        2.853479   1.000000
    5        8.009248   0.000000
    6        9.253637   0.000000
    7       10.940793   0.000000
    8       12.162609   0.000000
 
 -0.1875000E+00  0.3125000E+00  0.1875000E+00  0.2343750E-01
    1       -4.054079   1.000000
    2       -0.374724   1.000000
    3        1.998597   1.000000
    4        3.024218   1.000000
    5        7.746130   0.000000
    6        8.944561   0.000000
    7        9.744220   0.000000
    8       12.166246   0.000000
 
  0.4375000E+00  0.4375000E+00  0.1875000E+00  0.1171875E-01
    1       -4.159085   1.000000
    2       -0.313572   1.000000
    3        2.315434   1.000000
    4        3.160716   1.000000
    5        6.801488   0.000000
    6        8.780113   0.000000
    7       10.922401   0.000000
    8       11.301744   0.000000
 
 -0.4375000E+00  0.4375000E+00  0.1875000E+00  0.2343750E-01
    1       -3.385212   1.000000
    2       -1.100945   1.000000
    3        1.768681   1.000000
    4        2.510710   1.000000
    5        7.552731   0.000000
    6        8.546238   0.000000
    7       10.617606   0.000000
    8       13.328522   0.000000
 
 -0.3125000E+00  0.4375000E+00  0.1875000E+00  0.2343750E-01
    1       -2.610468   1.000000
    2       -1.835147   1.000000
    3        1.468679   1.000000
    4        2.031909   1.000000
    5        8.648710   0.000000
    6        9.569851   0.000000
    7       10.170698   0.000000
    8       11.165591   0.000000
 
 -0.1875000E+00  0.4375000E+00  0.1875000E+00  0.2343750E-01
    1       -3.191192   1.000000
    2       -1.298243   1.000000
    3        1.456059   1.000000
    4        2.487542   1.000000
    5        8.744317   0.000000
    6        9.149349   0.000000
    7        9.873893   0.000000
    8       12.300895   0.000000
 
 -0.4375000E+00 -0.4375000E+00  0.1875000E+00  0.1171875E-01
    1       -2.765054   1.000000
    2       -1.809858   1.000000
    3        1.567880   1.000000
    4        2.829692   1.000000
    5        6.389452   0.000000
    6        8.233305   0.000000
    7       13.059350   0.000000
    8       13.215200   0.000000
 
 -0.3125000E+00 -0.4375000E+00  0.1875000E+00  0.2343750E-01
    1       -2.667934   1.000000
    2       -1.843440   1.000000
    3        1.657934   1.000000
    4        2.234506   1.000000
    5        7.453853   0.000000
    6        8.345493   0.000000
    7       11.598153   0.000000
    8       12.680509   0.000000
 
 -0.3125000E+00 -0.3125000E+00  0.1875000E+00  0.1171875E-01
    1       -3.478575   1.000000
    2       -1.060520   1.000000
    3        1.819729   1.000000
    4        2.941172   1.000000
    5        6.531757   0.000000
    6        8.414679   0.000000
    7       12.052655   0.000000
    8       12.181029   0.000000
 
  0.3125000E+00  0.3125000E+00  0.3125000E+00  0.3906250E-02
    1       -5.139502   1.000000
    2        0.433328   1.000000
    3        4.387644   1.000000
    4        4.387644   1.000000
    5        6.929352   0.000000
    6        8.802522   0.000000
    7        8.802522   0.000000
    8       12.722357   0.000000
 
  0.4375000E+00  0.3125000E+00  0.3125000E+00  0.1171875E-01
    1       -4.677992   1.000000
    2       -0.135024   1.000000
    3        2.966597   1.000000
    4        4.301595   1.000000
    5        7.664570   0.000000
    6        9.014788   0.000000
    7        9.067681   0.000000
    8       12.142774   0.000000
 
 -0.4375000E+00  0.3125000E+00  0.3125000E+00  0.1171875E-01
    1       -3.916109   1.000000
    2       -0.679357   1.000000
    3        1.512071   1.000000
    4        3.744715   1.000000
    5        7.417189   0.000000
    6       10.410069   0.000000
    7       10.553204   0.000000
    8       11.881359   0.000000
 
 -0.3125000E+00  0.3125000E+00  0.3125000E+00  0.1171875E-01
    1       -3.128680   1.000000
    2       -1.444671   1.000000
    3        1.194536   1.000000
    4        3.218866   1.000000
    5        6.836006   0.000000
    6       10.638738   0.000000
    7       11.645049   0.000000
    8       11.845554   0.000000
 
  0.4375000E+00  0.4375000E+00  0.3125000E+00  0.1171875E-01
    1       -4.377095   1.000000
    2       -0.671892   1.000000
    3        3.282027   1.000000
    4        3.762007   1.000000
    5        7.422219   0.000000
    6        8.767642   0.000000
    7        9.542111   0.000000
    8       11.522481   0.000000
 
 -0.4375000E+00  0.4375000E+00  0.3125000E+00  0.2343750E-01
    1       -3.781777   1.000000
    2       -1.036567   1.000000
    3        2.029295   1.000000
    4        3.309556   1.000000
    5        8.195477   0.000000
    6        8.570089   0.000000
    7       10.993945   0.000000
    8       11.286577   0.000000
 
 -0.3125000E+00  0.4375000E+00  0.3125000E+00  0.2343750E-01
    1       -2.994553   1.000000
    2       -1.513991   1.000000
    3        1.283419   1.000000
    4        2.626341   1.000000
    5        7.887848   0.000000
    6       10.083094   0.000000
    7       10.827636   0.000000
    8       11.328608   0.000000
 
 -0.4375000E+00 -0.4375000E+00  0.3125000E+00  0.1171875E-01
    1       -3.438376   1.000000
    2       -1.313557   1.000000
    3        1.659791   1.000000
    4        3.315088   1.000000
    5        6.976242   0.000000
    6       10.594732   0.000000
    7       10.891755   0.000000
    8       10.899563   0.000000
 
  0.4375000E+00  0.4375000E+00  0.4375000E+00  0.3906250E-02
    1       -4.289483   1.000000
    2       -1.150879   1.000000
    3        4.171759   1.000000
    4        4.171759   1.000000
    5        6.677564   0.000000
    6        8.684635   0.000000
    7        8.684635   0.000000
    8       12.985976   0.000000
 
 -0.4375000E+00  0.4375000E+00  0.4375000E+00  0.1171875E-01
    1       -3.953906   1.000000
    2       -1.325445   1.000000
    3        2.978549   1.000000
    4        3.915632   1.000000
    5        7.431896   0.000000
    6        8.782464   0.000000
    7        9.244132   0.000000
    8       13.306173   0.000000
