       N       E                     dE             d eps       ncg     rms          rms(c)
DAV:   1     0.447703622066E+01    0.44770E+01   -0.26958E+03   960   0.581E+02
DAV:   2    -0.108112538388E+02   -0.15288E+02   -0.14894E+02  1560   0.726E+01
DAV:   3    -0.109854177595E+02   -0.17416E+00   -0.17416E+00  1128   0.101E+01
DAV:   4    -0.109862750287E+02   -0.85727E-03   -0.85727E-03  1640   0.784E-01
DAV:   5    -0.109862752674E+02   -0.23872E-06   -0.23866E-06  1136   0.130E-02    0.288E+00
DAV:   6    -0.108834064973E+02    0.10287E+00   -0.65370E-02  1152   0.133E+00    0.172E+00
DAV:   7    -0.108345195122E+02    0.48887E-01   -0.12698E-01  1192   0.198E+00    0.142E-01
DAV:   8    -0.108358526153E+02   -0.13331E-02   -0.37822E-03  1144   0.451E-01    0.251E-02
DAV:   9    -0.108359579896E+02   -0.10537E-03   -0.10702E-04   744   0.827E-02
   1 F= -.10835958E+02 E0= -.10835949E+02  d E =-.108360E+02
