 vasp.5.4.4.18Apr17-6-g9f103f2a35 (build Dec 09 2018 21:25:21) complex          
  
 executed on IFC18.0.1.163_CrayMP date 2019.03.23  21:26:43
 running on    8 total cores
 distrk:  each k-point on    8 cores,    1 groups
 distr:  one band on NCORES_PER_BAND=   1 cores,    8 groups


--------------------------------------------------------------------------------------------------------


 INCAR:
 POTCAR:   PAW_PBE Si 05Jan2001                   

 ----------------------------------------------------------------------------- 
|                                                                             |
|           W    W    AA    RRRRR   N    N  II  N    N   GGGG   !!!           |
|           W    W   A  A   R    R  NN   N  II  NN   N  G    G  !!!           |
|           W    W  A    A  R    R  N N  N  II  N N  N  G       !!!           |
|           W WW W  AAAAAA  RRRRR   N  N N  II  N  N N  G  GGG   !            |
|           WW  WW  A    A  R   R   N   NN  II  N   NN  G    G                |
|           W    W  A    A  R    R  N    N  II  N    N   GGGG   !!!           |
|                                                                             |
|      For optimal performance we recommend to set                            |
|        NCORE= 4 - approx SQRT( number of cores)                             |
|      NCORE specifies how many cores store one orbital (NPAR=cpu/NCORE).     |
|      This setting can  greatly improve the performance of VASP for DFT.     |
|      The default,   NCORE=1            might be grossly inefficient         |
|      on modern multi-core architectures or massively parallel machines.     |
|      Do your own testing !!!!                                               |
|      Unfortunately you need to use the default for GW and RPA calculations. |
|      (for HF NCORE is supported but not extensively tested yet)             |
|                                                                             |
 ----------------------------------------------------------------------------- 

 POTCAR:   PAW_PBE Si 05Jan2001                   
   VRHFIN =Si: s2p2                                                             
   LEXCH  = PE                                                                  
   EATOM  =   103.0669 eV,    7.5752 Ry                                         
                                                                                
   TITEL  = PAW_PBE Si 05Jan2001                                                
   LULTRA =        F    use ultrasoft PP ?                                      
   IUNSCR =        1    unscreen: 0-lin 1-nonlin 2-no                           
   RPACOR =    1.500    partial core radius                                     
   POMASS =   28.085; ZVAL   =    4.000    mass and valenz                      
   RCORE  =    1.900    outmost cutoff radius                                   
   RWIGS  =    2.480; RWIGS  =    1.312    wigner-seitz radius (au A)           
   ENMAX  =  245.345; ENMIN  =  184.009 eV                                      
   ICORE  =        2    local potential                                         
   LCOR   =        T    correct aug charges                                     
   LPAW   =        T    paw PP                                                  
   EAUG   =  322.069                                                            
   DEXC   =    -.007                                                            
   RMAX   =    2.944    core radius for proj-oper                               
   RAUG   =    1.300    factor for augmentation sphere                          
   RDEP   =    1.993    radius for radial grids                                 
   QCUT   =   -4.246; QGAM   =    8.493    optimization parameters              
                                                                                
   Description                                                                  
     l     E      TYP  RCUT    TYP  RCUT                                        
     0   .000     23  1.900                                                     
     0   .000     23  1.900                                                     
     1   .000     23  1.900                                                     
     1   .000     23  1.900                                                     
     2   .000      7  1.900                                                     
  local pseudopotential read in
  partial core-charges read in
  atomic valenz-charges read in
  non local Contribution for L=           0  read in
    real space projection operators read in
  non local Contribution for L=           0  read in
    real space projection operators read in
  non local Contribution for L=           1  read in
    real space projection operators read in
  non local Contribution for L=           1  read in
    real space projection operators read in
    PAW grid and wavefunctions read in
 
   number of l-projection  operators is LMAX  =           4
   number of lm-projection operators is LMMAX =           8
 
 PAW_PBE Si 05Jan2001                   :
 energy of atom  1       EATOM= -103.0669
 kinetic energy error for atom=    0.0013 (will be added to EATOM!!)
 
 
 POSCAR: Si2                                     
  positions in direct lattice
  No initial velocities read in
 exchange correlation table for  LEXCH =        8
   RHO(1)=    0.500       N(1)  =     2000
   RHO(2)=  100.500       N(2)  =     4000
 


--------------------------------------------------------------------------------------------------------


 ion  position               nearest neighbor table
   1  0.500  0.500  0.500-   2 2.39   2 2.39   2 2.39   2 2.39
   2  0.750  0.750  0.750-   1 2.39   1 2.39   1 2.39   1 2.39
 
  LATTYP: Found a face centered cubic cell.
 ALAT       =     5.5288840000
  
  Lattice vectors:
  
 A1 = (   0.0000000000,   2.7644420000,   2.7644420000)
 A2 = (   2.7644420000,   0.0000000000,   2.7644420000)
 A3 = (   2.7644420000,   2.7644420000,   0.0000000000)


Analysis of symmetry for initial positions (statically):
=====================================================================
 Subroutine PRICEL returns:
 Original cell was already a primitive cell.
 

 Routine SETGRP: Setting up the symmetry group for a 
 face centered cubic supercell.


 Subroutine GETGRP returns: Found 48 space group operations
 (whereof 24 operations were pure point group operations)
 out of a pool of 48 trial point group operations.


The static configuration has the point symmetry T_d .
 The point group associated with its full space group is O_h .


Analysis of symmetry for dynamics (positions and initial velocities):
=====================================================================
 Subroutine PRICEL returns:
 Original cell was already a primitive cell.
 

 Routine SETGRP: Setting up the symmetry group for a 
 face centered cubic supercell.


 Subroutine GETGRP returns: Found 48 space group operations
 (whereof 24 operations were pure point group operations)
 out of a pool of 48 trial point group operations.


The dynamic configuration has the point symmetry T_d .
 The point group associated with its full space group is O_h .


 Subroutine INISYM returns: Found 48 space group operations
 (whereof 24 operations are pure point group operations),
 and found     1 'primitive' translations

 
 
 KPOINTS: Automatic kpoint scheme                 

Automatic generation of k-mesh.
Space group operators:
 irot       det(A)        alpha          n_x          n_y          n_z        tau_x        tau_y        tau_z
    1     1.000000     0.000000     1.000000     0.000000     0.000000     0.000000     0.000000     0.000000
    2     1.000000   120.000000    -0.577350    -0.577350    -0.577350     0.000000     0.000000     0.000000
    3     1.000000   120.000000     0.577350     0.577350     0.577350     0.000000     0.000000     0.000000
    4    -1.000000    90.000000     0.000000    -0.000000    -1.000000     0.000000     0.000000     0.000000
    5    -1.000000   180.000000    -0.000000     0.707107     0.707107     0.000000     0.000000     0.000000
    6    -1.000000    90.000000     0.000000     1.000000     0.000000     0.000000     0.000000     0.000000
    7     1.000000   180.000000    -0.000000    -0.000000    -1.000000     0.000000     0.000000     0.000000
    8     1.000000   120.000000    -0.577350     0.577350     0.577350     0.000000     0.000000     0.000000
    9     1.000000   120.000000    -0.577350     0.577350    -0.577350     0.000000     0.000000     0.000000
   10    -1.000000    90.000000     0.000000     0.000000     1.000000     0.000000     0.000000     0.000000
   11    -1.000000    90.000000    -1.000000    -0.000000    -0.000000     0.000000     0.000000     0.000000
   12    -1.000000   180.000000     0.707107     0.000000     0.707107     0.000000     0.000000     0.000000
   13     1.000000   120.000000     0.577350    -0.577350     0.577350     0.000000     0.000000     0.000000
   14     1.000000   120.000000    -0.577350    -0.577350     0.577350     0.000000     0.000000     0.000000
   15     1.000000   180.000000     1.000000     0.000000     0.000000     0.000000     0.000000     0.000000
   16    -1.000000    90.000000     0.000000    -1.000000     0.000000     0.000000     0.000000     0.000000
   17    -1.000000   180.000000     0.707107     0.707107     0.000000     0.000000     0.000000     0.000000
   18    -1.000000    90.000000     1.000000     0.000000    -0.000000     0.000000     0.000000     0.000000
   19     1.000000   120.000000     0.577350    -0.577350    -0.577350     0.000000     0.000000     0.000000
   20     1.000000   180.000000     0.000000    -1.000000    -0.000000     0.000000     0.000000     0.000000
   21     1.000000   120.000000     0.577350     0.577350    -0.577350     0.000000     0.000000     0.000000
   22    -1.000000   180.000000     0.000000    -0.707107     0.707107     0.000000     0.000000     0.000000
   23    -1.000000   180.000000    -0.707107     0.707107     0.000000     0.000000     0.000000     0.000000
   24    -1.000000   180.000000     0.707107     0.000000    -0.707107     0.000000     0.000000     0.000000
   25    -1.000000     0.000000     1.000000     0.000000     0.000000     0.250000     0.250000     0.250000
   26    -1.000000   120.000000    -0.577350    -0.577350    -0.577350     0.250000     0.250000     0.250000
   27    -1.000000   120.000000     0.577350     0.577350     0.577350     0.250000     0.250000     0.250000
   28     1.000000    90.000000     0.000000    -0.000000    -1.000000     0.250000     0.250000     0.250000
   29     1.000000   180.000000    -0.000000     0.707107     0.707107     0.250000     0.250000     0.250000
   30     1.000000    90.000000     0.000000     1.000000     0.000000     0.250000     0.250000     0.250000
   31    -1.000000   180.000000    -0.000000    -0.000000    -1.000000     0.250000     0.250000     0.250000
   32    -1.000000   120.000000    -0.577350     0.577350     0.577350     0.250000     0.250000     0.250000
   33    -1.000000   120.000000    -0.577350     0.577350    -0.577350     0.250000     0.250000     0.250000
   34     1.000000    90.000000     0.000000     0.000000     1.000000     0.250000     0.250000     0.250000
   35     1.000000    90.000000    -1.000000    -0.000000    -0.000000     0.250000     0.250000     0.250000
   36     1.000000   180.000000     0.707107     0.000000     0.707107     0.250000     0.250000     0.250000
   37    -1.000000   120.000000     0.577350    -0.577350     0.577350     0.250000     0.250000     0.250000
   38    -1.000000   120.000000    -0.577350    -0.577350     0.577350     0.250000     0.250000     0.250000
   39    -1.000000   180.000000     1.000000     0.000000     0.000000     0.250000     0.250000     0.250000
   40     1.000000    90.000000     0.000000    -1.000000     0.000000     0.250000     0.250000     0.250000
   41     1.000000   180.000000     0.707107     0.707107     0.000000     0.250000     0.250000     0.250000
   42     1.000000    90.000000     1.000000     0.000000    -0.000000     0.250000     0.250000     0.250000
   43    -1.000000   120.000000     0.577350    -0.577350    -0.577350     0.250000     0.250000     0.250000
   44    -1.000000   180.000000     0.000000    -1.000000    -0.000000     0.250000     0.250000     0.250000
   45    -1.000000   120.000000     0.577350     0.577350    -0.577350     0.250000     0.250000     0.250000
   46     1.000000   180.000000     0.000000    -0.707107     0.707107     0.250000     0.250000     0.250000
   47     1.000000   180.000000    -0.707107     0.707107     0.000000     0.250000     0.250000     0.250000
   48     1.000000   180.000000     0.707107     0.000000    -0.707107     0.250000     0.250000     0.250000
 
 Subroutine IBZKPT returns following result:
 ===========================================
 
 Found     60 irreducible k-points:
 
 Following reciprocal coordinates:
            Coordinates               Weight
  0.062500  0.062500  0.062500     96.000000
  0.187500  0.062500  0.062500    288.000000
  0.312500  0.062500  0.062500    288.000000
  0.437500  0.062500  0.062500    288.000000
 -0.437500  0.062500  0.062500    288.000000
 -0.312500  0.062500  0.062500    288.000000
 -0.187500  0.062500  0.062500    288.000000
 -0.062500  0.062500  0.062500    288.000000
  0.187500  0.187500  0.062500    288.000000
  0.312500  0.187500  0.062500    576.000000
  0.437500  0.187500  0.062500    576.000000
 -0.437500  0.187500  0.062500    576.000000
 -0.312500  0.187500  0.062500    576.000000
 -0.187500  0.187500  0.062500    576.000000
 -0.062500  0.187500  0.062500    576.000000
  0.312500  0.312500  0.062500    288.000000
  0.437500  0.312500  0.062500    576.000000
 -0.437500  0.312500  0.062500    576.000000
 -0.312500  0.312500  0.062500    576.000000
 -0.187500  0.312500  0.062500    576.000000
 -0.062500  0.312500  0.062500    576.000000
  0.437500  0.437500  0.062500    288.000000
 -0.437500  0.437500  0.062500    576.000000
 -0.312500  0.437500  0.062500    576.000000
 -0.187500  0.437500  0.062500    576.000000
 -0.062500  0.437500  0.062500    576.000000
 -0.437500 -0.437500  0.062500    288.000000
 -0.312500 -0.437500  0.062500    576.000000
 -0.187500 -0.437500  0.062500    576.000000
 -0.312500 -0.312500  0.062500    288.000000
 -0.187500 -0.312500  0.062500    576.000000
 -0.187500 -0.187500  0.062500    288.000000
  0.187500  0.187500  0.187500     96.000000
  0.312500  0.187500  0.187500    288.000000
  0.437500  0.187500  0.187500    288.000000
 -0.437500  0.187500  0.187500    288.000000
 -0.312500  0.187500  0.187500    288.000000
 -0.187500  0.187500  0.187500    288.000000
  0.312500  0.312500  0.187500    288.000000
  0.437500  0.312500  0.187500    576.000000
 -0.437500  0.312500  0.187500    576.000000
 -0.312500  0.312500  0.187500    576.000000
 -0.187500  0.312500  0.187500    576.000000
  0.437500  0.437500  0.187500    288.000000
 -0.437500  0.437500  0.187500    576.000000
 -0.312500  0.437500  0.187500    576.000000
 -0.187500  0.437500  0.187500    576.000000
 -0.437500 -0.437500  0.187500    288.000000
 -0.312500 -0.437500  0.187500    576.000000
 -0.312500 -0.312500  0.187500    288.000000
  0.312500  0.312500  0.312500     96.000000
  0.437500  0.312500  0.312500    288.000000
 -0.437500  0.312500  0.312500    288.000000
 -0.312500  0.312500  0.312500    288.000000
  0.437500  0.437500  0.312500    288.000000
 -0.437500  0.437500  0.312500    576.000000
 -0.312500  0.437500  0.312500    576.000000
 -0.437500 -0.437500  0.312500    288.000000
  0.437500  0.437500  0.437500     96.000000
 -0.437500  0.437500  0.437500    288.000000
 
 Following cartesian coordinates:
            Coordinates               Weight
  0.011304  0.011304  0.011304     96.000000
 -0.011304  0.033913  0.033913    288.000000
 -0.033913  0.056521  0.056521    288.000000
 -0.056521  0.079130  0.079130    288.000000
  0.101738 -0.079130 -0.079130    288.000000
  0.079130 -0.056521 -0.056521    288.000000
  0.056521 -0.033913 -0.033913    288.000000
  0.033913 -0.011304 -0.011304    288.000000
  0.011304  0.011304  0.056521    288.000000
 -0.011304  0.033913  0.079130    576.000000
 -0.033913  0.056521  0.101738    576.000000
  0.124347 -0.101738 -0.056521    576.000000
  0.101738 -0.079130 -0.033913    576.000000
  0.079130 -0.056521 -0.011304    576.000000
  0.056521 -0.033913  0.011304    576.000000
  0.011304  0.011304  0.101738    288.000000
 -0.011304  0.033913  0.124347    576.000000
  0.146956 -0.124347 -0.033913    576.000000
  0.124347 -0.101738 -0.011304    576.000000
  0.101738 -0.079130  0.011304    576.000000
  0.079130 -0.056521  0.033913    576.000000
  0.011304  0.011304  0.146956    288.000000
  0.169564 -0.146956 -0.011304    576.000000
  0.146956 -0.124347  0.011304    576.000000
  0.124347 -0.101738  0.033913    576.000000
  0.101738 -0.079130  0.056521    576.000000
  0.011304  0.011304 -0.169564    288.000000
 -0.011304  0.033913 -0.146956    576.000000
 -0.033913  0.056521 -0.124347    576.000000
  0.011304  0.011304 -0.124347    288.000000
 -0.011304  0.033913 -0.101738    576.000000
  0.011304  0.011304 -0.079130    288.000000
  0.033913  0.033913  0.033913     96.000000
  0.011304  0.056521  0.056521    288.000000
 -0.011304  0.079130  0.079130    288.000000
  0.146956 -0.079130 -0.079130    288.000000
  0.124347 -0.056521 -0.056521    288.000000
  0.101738 -0.033913 -0.033913    288.000000
  0.033913  0.033913  0.079130    288.000000
  0.011304  0.056521  0.101738    576.000000
  0.169564 -0.101738 -0.056521    576.000000
  0.146956 -0.079130 -0.033913    576.000000
  0.124347 -0.056521 -0.011304    576.000000
  0.033913  0.033913  0.124347    288.000000
  0.192173 -0.124347 -0.033913    576.000000
  0.169564 -0.101738 -0.011304    576.000000
  0.146956 -0.079130  0.011304    576.000000
  0.033913  0.033913 -0.192173    288.000000
  0.011304  0.056521 -0.169564    576.000000
  0.033913  0.033913 -0.146956    288.000000
  0.056521  0.056521  0.056521     96.000000
  0.033913  0.079130  0.079130    288.000000
  0.192173 -0.079130 -0.079130    288.000000
  0.169564 -0.056521 -0.056521    288.000000
  0.056521  0.056521  0.101738    288.000000
  0.214781 -0.101738 -0.056521    576.000000
  0.192173 -0.079130 -0.033913    576.000000
  0.056521  0.056521 -0.214781    288.000000
  0.079130  0.079130  0.079130     96.000000
  0.237390 -0.079130 -0.079130    288.000000
 


--------------------------------------------------------------------------------------------------------




 Dimension of arrays:
   k-points           NKPTS =     60   k-points in BZ     NKDIM =     60   number of bands    NBANDS=      8
   number of dos      NEDOS =    301   number of ions     NIONS =      2
   non local maximal  LDIM  =      4   non local SUM 2l+1 LMDIM =      8
   total plane-waves  NPLWV =   5832
   max r-space proj   IRMAX =      1   max aug-charges    IRDMAX=   4814
   dimension x,y,z NGX =    18 NGY =   18 NGZ =   18
   dimension x,y,z NGXF=    36 NGYF=   36 NGZF=   36
   support grid    NGXF=    36 NGYF=   36 NGZF=   36
   ions per type =               2
   NGX,Y,Z   is equivalent  to a cutoff of   7.65,  7.65,  7.65 a.u.
   NGXF,Y,Z  is equivalent  to a cutoff of  15.31, 15.31, 15.31 a.u.

 SYSTEM =  unknown system                          
 POSCAR =  Si2                                     

 Startparameter for this run:
   NWRITE =      2    write-flag & timer
   PREC   = normal    normal or accurate (medium, high low for compatibility)
   ISTART =      0    job   : 0-new  1-cont  2-samecut
   ICHARG =      2    charge: 1-file 2-atom 10-const
   ISPIN  =      1    spin polarized calculation?
   LNONCOLLINEAR =      F non collinear calculations
   LSORBIT =      F    spin-orbit coupling
   INIWAV =      1    electr: 0-lowe 1-rand  2-diag
   LASPH  =      F    aspherical Exc in radial PAW
   METAGGA=      F    non-selfconsistent MetaGGA calc.

 Electronic Relaxation 1
   ENCUT  =  350.0 eV  25.72 Ry    5.07 a.u.   5.96  5.96  5.96*2*pi/ulx,y,z
   ENINI  =  350.0     initial cutoff
   ENAUG  =  322.1 eV  augmentation charge cutoff
   NELM   =     60;   NELMIN=  2; NELMDL= -5     # of ELM steps 
   EDIFF  = 0.4E-03   stopping-criterion for ELM
   LREAL  =      F    real-space projection
   NLSPLINE    = F    spline interpolate recip. space projectors
   LCOMPAT=      F    compatible to vasp.4.4
   GGA_COMPAT  = T    GGA compatible to vasp.4.4-vasp.4.6
   LMAXPAW     = -100 max onsite density
   LMAXMIX     =    2 max onsite mixed and CHGCAR
   VOSKOWN=      0    Vosko Wilk Nusair interpolation
   ROPT   =    0.00000
 Ionic relaxation
   EDIFFG = -.1E-01   stopping-criterion for IOM
   NSW    =     15    number of steps for IOM
   NBLOCK =      1;   KBLOCK =     15    inner block; outer block 
   IBRION =      2    ionic relax: 0-MD 1-quasi-New 2-CG
   NFREE  =      1    steps in history (QN), initial steepest desc. (CG)
   ISIF   =      2    stress and relaxation
   IWAVPR =     11    prediction:  0-non 1-charg 2-wave 3-comb
   ISYM   =      2    0-nonsym 1-usesym 2-fastsym
   LCORR  =      T    Harris-Foulkes like correction to forces

   POTIM  = 0.5000    time-step for ionic-motion
   TEIN   =    0.0    initial temperature
   TEBEG  =    0.0;   TEEND  =   0.0 temperature during run
   SMASS  =  -3.00    Nose mass-parameter (am)
   estimated Nose-frequenzy (Omega)   =  0.10E-29 period in steps =****** mass=  -0.349E-27a.u.
   SCALEE = 1.0000    scale energy and forces
   NPACO  =    256;   APACO  = 16.0  distance and # of slots for P.C.
   PSTRESS=    0.0 pullay stress

  Mass of Ions in am
   POMASS =  28.09
  Ionic Valenz
   ZVAL   =   4.00
  Atomic Wigner-Seitz radii
   RWIGS  =  -1.00
  virtual crystal weights 
   VCA    =   1.00
   NELECT =       8.0000    total number of electrons
   NUPDOWN=      -1.0000    fix difference up-down

 DOS related values:
   EMIN   =  10.00;   EMAX   =-10.00  energy-range for DOS
   EFERMI =   0.00
   ISMEAR =     0;   SIGMA  =   0.20  broadening in eV -4-tet -1-fermi 0-gaus

 Electronic relaxation 2 (details)
   IALGO  =     38    algorithm
   LDIAG  =      T    sub-space diagonalisation (order eigenvalues)
   LSUBROT=      F    optimize rotation matrix (better conditioning)
   TURBO    =      0    0=normal 1=particle mesh
   IRESTART =      0    0=no restart 2=restart with 2 vectors
   NREBOOT  =      0    no. of reboots
   NMIN     =      0    reboot dimension
   EREF     =   0.00    reference energy to select bands
   IMIX   =      4    mixing-type and parameters
     AMIX     =   0.40;   BMIX     =  1.00
     AMIX_MAG =   1.60;   BMIX_MAG =  1.00
     AMIN     =   0.10
     WC   =   100.;   INIMIX=   1;  MIXPRE=   1;  MAXMIX= -45

 Intra band minimization:
   WEIMIN = 0.0010     energy-eigenvalue tresh-hold
   EBREAK =  0.13E-04  absolut break condition
   DEPER  =   0.30     relativ break condition  

   TIME   =   0.40     timestep for ELM

  volume/ion in A,a.u.               =      21.13       142.57
  Fermi-wavevector in a.u.,A,eV,Ry     =   0.940057  1.776449 12.023556  0.883706
  Thomas-Fermi vector in A             =   2.067430
 
 Write flags
   LWAVE        =      T    write WAVECAR
   LDOWNSAMPLE  =      F    k-point downsampling of WAVECAR
   LCHARG       =      T    write CHGCAR
   LVTOT        =      F    write LOCPOT, total local potential
   LVHAR        =      F    write LOCPOT, Hartree potential only
   LELF         =      F    write electronic localiz. function (ELF)
   LORBIT       =      0    0 simple, 1 ext, 2 COOP (PROOUT), +10 PAW based schemes


 Dipole corrections
   LMONO  =      F    monopole corrections only (constant potential shift)
   LDIPOL =      F    correct potential (dipole corrections)
   IDIPOL =      0    1-x, 2-y, 3-z, 4-all directions 
   EPSILON=  1.0000000 bulk dielectric constant

 Exchange correlation treatment:
   GGA     =    --    GGA type
   LEXCH   =     8    internal setting for exchange type
   VOSKOWN=      0    Vosko Wilk Nusair interpolation
   LHFCALC =     F    Hartree Fock is set to
   LHFONE  =     F    Hartree Fock one center treatment
   AEXX    =    0.0000 exact exchange contribution

 Linear response parameters
   LEPSILON=     F    determine dielectric tensor
   LRPA    =     F    only Hartree local field effects (RPA)
   LNABLA  =     F    use nabla operator in PAW spheres
   LVEL    =     F    velocity operator in full k-point grid
   LINTERFAST=   F  fast interpolation
   KINTER  =     0    interpolate to denser k-point grid
   CSHIFT  =0.1000    complex shift for real part using Kramers Kronig
   OMEGAMAX=  -1.0    maximum frequency
   DEG_THRESHOLD= 0.2000000E-02 threshold for treating states as degnerate
   RTIME   =   -0.100 relaxation time in fs
  (WPLASMAI=    0.000 imaginary part of plasma frequency in eV, 0.658/RTIME)
   DFIELD  = 0.0000000 0.0000000 0.0000000 field for delta impulse in time
 
 Orbital magnetization related:
   ORBITALMAG=     F  switch on orbital magnetization
   LCHIMAG   =     F  perturbation theory with respect to B field
   DQ        =  0.001000  dq finite difference perturbation B field
   LLRAUG    =     F  two centre corrections for induced B field



--------------------------------------------------------------------------------------------------------


 conjugate gradient relaxation of ions
 charge density and potential will be updated during run
 non-spin polarized calculation
 Variant of blocked Davidson
 Davidson routine will perform the subspace rotation
 perform sub-space diagonalisation
    after iterative eigenvector-optimisation
 modified Broyden-mixing scheme, WC =      100.0
 initial mixing is a Kerker type mixing with AMIX =  0.4000 and BMIX =      1.0000
 Hartree-type preconditioning will be used
 using additional bands            4
 reciprocal scheme for non local part
 use partial core corrections
 calculate Harris-corrections to forces 
   (improved forces if not selfconsistent)
 use gradient corrections 
 use of overlap-Matrix (Vanderbilt PP)
 Gauss-broadening in eV      SIGMA  =   0.20


--------------------------------------------------------------------------------------------------------


  energy-cutoff  :      350.00
  volume of cell :       42.25
      direct lattice vectors                 reciprocal lattice vectors
     0.000000000  2.764442000  2.764442000    -0.180868327  0.180868327  0.180868327
     2.764442000  0.000000000  2.764442000     0.180868327 -0.180868327  0.180868327
     2.764442000  2.764442000  0.000000000     0.180868327  0.180868327 -0.180868327

  length of vectors
     3.909511369  3.909511369  3.909511369     0.313273132  0.313273132  0.313273132


 
 k-points in units of 2pi/SCALE and weight: Automatic kpoint scheme                 
   0.01130427  0.01130427  0.01130427       0.004
  -0.01130427  0.03391281  0.03391281       0.012
  -0.03391281  0.05652135  0.05652135       0.012
  -0.05652135  0.07912989  0.07912989       0.012
   0.10173843 -0.07912989 -0.07912989       0.012
   0.07912989 -0.05652135 -0.05652135       0.012
   0.05652135 -0.03391281 -0.03391281       0.012
   0.03391281 -0.01130427 -0.01130427       0.012
   0.01130427  0.01130427  0.05652135       0.012
  -0.01130427  0.03391281  0.07912989       0.023
  -0.03391281  0.05652135  0.10173843       0.023
   0.12434697 -0.10173843 -0.05652135       0.023
   0.10173843 -0.07912989 -0.03391281       0.023
   0.07912989 -0.05652135 -0.01130427       0.023
   0.05652135 -0.03391281  0.01130427       0.023
   0.01130427  0.01130427  0.10173843       0.012
  -0.01130427  0.03391281  0.12434697       0.023
   0.14695552 -0.12434697 -0.03391281       0.023
   0.12434697 -0.10173843 -0.01130427       0.023
   0.10173843 -0.07912989  0.01130427       0.023
   0.07912989 -0.05652135  0.03391281       0.023
   0.01130427  0.01130427  0.14695552       0.012
   0.16956406 -0.14695552 -0.01130427       0.023
   0.14695552 -0.12434697  0.01130427       0.023
   0.12434697 -0.10173843  0.03391281       0.023
   0.10173843 -0.07912989  0.05652135       0.023
   0.01130427  0.01130427 -0.16956406       0.012
  -0.01130427  0.03391281 -0.14695552       0.023
  -0.03391281  0.05652135 -0.12434697       0.023
   0.01130427  0.01130427 -0.12434697       0.012
  -0.01130427  0.03391281 -0.10173843       0.023
   0.01130427  0.01130427 -0.07912989       0.012
   0.03391281  0.03391281  0.03391281       0.004
   0.01130427  0.05652135  0.05652135       0.012
  -0.01130427  0.07912989  0.07912989       0.012
   0.14695552 -0.07912989 -0.07912989       0.012
   0.12434697 -0.05652135 -0.05652135       0.012
   0.10173843 -0.03391281 -0.03391281       0.012
   0.03391281  0.03391281  0.07912989       0.012
   0.01130427  0.05652135  0.10173843       0.023
   0.16956406 -0.10173843 -0.05652135       0.023
   0.14695552 -0.07912989 -0.03391281       0.023
   0.12434697 -0.05652135 -0.01130427       0.023
   0.03391281  0.03391281  0.12434697       0.012
   0.19217260 -0.12434697 -0.03391281       0.023
   0.16956406 -0.10173843 -0.01130427       0.023
   0.14695552 -0.07912989  0.01130427       0.023
   0.03391281  0.03391281 -0.19217260       0.012
   0.01130427  0.05652135 -0.16956406       0.023
   0.03391281  0.03391281 -0.14695552       0.012
   0.05652135  0.05652135  0.05652135       0.004
   0.03391281  0.07912989  0.07912989       0.012
   0.19217260 -0.07912989 -0.07912989       0.012
   0.16956406 -0.05652135 -0.05652135       0.012
   0.05652135  0.05652135  0.10173843       0.012
   0.21478114 -0.10173843 -0.05652135       0.023
   0.19217260 -0.07912989 -0.03391281       0.023
   0.05652135  0.05652135 -0.21478114       0.012
   0.07912989  0.07912989  0.07912989       0.004
   0.23738968 -0.07912989 -0.07912989       0.012
 
 k-points in reciprocal lattice and weights: Automatic kpoint scheme                 
   0.06250000  0.06250000  0.06250000       0.004
   0.18750000  0.06250000  0.06250000       0.012
   0.31250000  0.06250000  0.06250000       0.012
   0.43750000  0.06250000  0.06250000       0.012
  -0.43750000  0.06250000  0.06250000       0.012
  -0.31250000  0.06250000  0.06250000       0.012
  -0.18750000  0.06250000  0.06250000       0.012
  -0.06250000  0.06250000  0.06250000       0.012
   0.18750000  0.18750000  0.06250000       0.012
   0.31250000  0.18750000  0.06250000       0.023
   0.43750000  0.18750000  0.06250000       0.023
  -0.43750000  0.18750000  0.06250000       0.023
  -0.31250000  0.18750000  0.06250000       0.023
  -0.18750000  0.18750000  0.06250000       0.023
  -0.06250000  0.18750000  0.06250000       0.023
   0.31250000  0.31250000  0.06250000       0.012
   0.43750000  0.31250000  0.06250000       0.023
  -0.43750000  0.31250000  0.06250000       0.023
  -0.31250000  0.31250000  0.06250000       0.023
  -0.18750000  0.31250000  0.06250000       0.023
  -0.06250000  0.31250000  0.06250000       0.023
   0.43750000  0.43750000  0.06250000       0.012
  -0.43750000  0.43750000  0.06250000       0.023
  -0.31250000  0.43750000  0.06250000       0.023
  -0.18750000  0.43750000  0.06250000       0.023
  -0.06250000  0.43750000  0.06250000       0.023
  -0.43750000 -0.43750000  0.06250000       0.012
  -0.31250000 -0.43750000  0.06250000       0.023
  -0.18750000 -0.43750000  0.06250000       0.023
  -0.31250000 -0.31250000  0.06250000       0.012
  -0.18750000 -0.31250000  0.06250000       0.023
  -0.18750000 -0.18750000  0.06250000       0.012
   0.18750000  0.18750000  0.18750000       0.004
   0.31250000  0.18750000  0.18750000       0.012
   0.43750000  0.18750000  0.18750000       0.012
  -0.43750000  0.18750000  0.18750000       0.012
  -0.31250000  0.18750000  0.18750000       0.012
  -0.18750000  0.18750000  0.18750000       0.012
   0.31250000  0.31250000  0.18750000       0.012
   0.43750000  0.31250000  0.18750000       0.023
  -0.43750000  0.31250000  0.18750000       0.023
  -0.31250000  0.31250000  0.18750000       0.023
  -0.18750000  0.31250000  0.18750000       0.023
   0.43750000  0.43750000  0.18750000       0.012
  -0.43750000  0.43750000  0.18750000       0.023
  -0.31250000  0.43750000  0.18750000       0.023
  -0.18750000  0.43750000  0.18750000       0.023
  -0.43750000 -0.43750000  0.18750000       0.012
  -0.31250000 -0.43750000  0.18750000       0.023
  -0.31250000 -0.31250000  0.18750000       0.012
   0.31250000  0.31250000  0.31250000       0.004
   0.43750000  0.31250000  0.31250000       0.012
  -0.43750000  0.31250000  0.31250000       0.012
  -0.31250000  0.31250000  0.31250000       0.012
   0.43750000  0.43750000  0.31250000       0.012
  -0.43750000  0.43750000  0.31250000       0.023
  -0.31250000  0.43750000  0.31250000       0.023
  -0.43750000 -0.43750000  0.31250000       0.012
   0.43750000  0.43750000  0.43750000       0.004
  -0.43750000  0.43750000  0.43750000       0.012
 
 position of ions in fractional coordinates (direct lattice) 
   0.50000000  0.50000000  0.50000000
   0.75000000  0.75000000  0.75000000
 
 position of ions in cartesian coordinates  (Angst):
   2.76444200  2.76444200  2.76444200
   4.14666300  4.14666300  4.14666300
 


--------------------------------------------------------------------------------------------------------


 k-point  1 :   0.0625 0.0625 0.0625  plane waves:     621
 k-point  2 :   0.1875 0.0625 0.0625  plane waves:     619
 k-point  3 :   0.3125 0.0625 0.0625  plane waves:     623
 k-point  4 :   0.4375 0.0625 0.0625  plane waves:     619
 k-point  5 :  -0.4375 0.0625 0.0625  plane waves:     621
 k-point  6 :  -0.3125 0.0625 0.0625  plane waves:     620
 k-point  7 :  -0.1875 0.0625 0.0625  plane waves:     620
 k-point  8 :  -0.0625 0.0625 0.0625  plane waves:     619
 k-point  9 :   0.1875 0.1875 0.0625  plane waves:     617
 k-point 10 :   0.3125 0.1875 0.0625  plane waves:     623
 k-point 11 :   0.4375 0.1875 0.0625  plane waves:     626
 k-point 12 :  -0.4375 0.1875 0.0625  plane waves:     627
 k-point 13 :  -0.3125 0.1875 0.0625  plane waves:     626
 k-point 14 :  -0.1875 0.1875 0.0625  plane waves:     624
 k-point 15 :  -0.0625 0.1875 0.0625  plane waves:     622
 k-point 16 :   0.3125 0.3125 0.0625  plane waves:     627
 k-point 17 :   0.4375 0.3125 0.0625  plane waves:     627
 k-point 18 :  -0.4375 0.3125 0.0625  plane waves:     631
 k-point 19 :  -0.3125 0.3125 0.0625  plane waves:     632
 k-point 20 :  -0.1875 0.3125 0.0625  plane waves:     627
 k-point 21 :  -0.0625 0.3125 0.0625  plane waves:     622
 k-point 22 :   0.4375 0.4375 0.0625  plane waves:     628
 k-point 23 :  -0.4375 0.4375 0.0625  plane waves:     630
 k-point 24 :  -0.3125 0.4375 0.0625  plane waves:     633
 k-point 25 :  -0.1875 0.4375 0.0625  plane waves:     630
 k-point 26 :  -0.0625 0.4375 0.0625  plane waves:     624
 k-point 27 :  -0.4375-0.4375 0.0625  plane waves:     634
 k-point 28 :  -0.3125-0.4375 0.0625  plane waves:     634
 k-point 29 :  -0.1875-0.4375 0.0625  plane waves:     632
 k-point 30 :  -0.3125-0.3125 0.0625  plane waves:     634
 k-point 31 :  -0.1875-0.3125 0.0625  plane waves:     627
 k-point 32 :  -0.1875-0.1875 0.0625  plane waves:     622
 k-point 33 :   0.1875 0.1875 0.1875  plane waves:     628
 k-point 34 :   0.3125 0.1875 0.1875  plane waves:     623
 k-point 35 :   0.4375 0.1875 0.1875  plane waves:     626
 k-point 36 :  -0.4375 0.1875 0.1875  plane waves:     630
 k-point 37 :  -0.3125 0.1875 0.1875  plane waves:     628
 k-point 38 :  -0.1875 0.1875 0.1875  plane waves:     621
 k-point 39 :   0.3125 0.3125 0.1875  plane waves:     620
 k-point 40 :   0.4375 0.3125 0.1875  plane waves:     626
 k-point 41 :  -0.4375 0.3125 0.1875  plane waves:     636
 k-point 42 :  -0.3125 0.3125 0.1875  plane waves:     634
 k-point 43 :  -0.1875 0.3125 0.1875  plane waves:     634
 k-point 44 :   0.4375 0.4375 0.1875  plane waves:     628
 k-point 45 :  -0.4375 0.4375 0.1875  plane waves:     638
 k-point 46 :  -0.3125 0.4375 0.1875  plane waves:     630
 k-point 47 :  -0.1875 0.4375 0.1875  plane waves:     638
 k-point 48 :  -0.4375-0.4375 0.1875  plane waves:     632
 k-point 49 :  -0.3125-0.4375 0.1875  plane waves:     635
 k-point 50 :  -0.3125-0.3125 0.1875  plane waves:     633
 k-point 51 :   0.3125 0.3125 0.3125  plane waves:     613
 k-point 52 :   0.4375 0.3125 0.3125  plane waves:     622
 k-point 53 :  -0.4375 0.3125 0.3125  plane waves:     627
 k-point 54 :  -0.3125 0.3125 0.3125  plane waves:     634
 k-point 55 :   0.4375 0.4375 0.3125  plane waves:     624
 k-point 56 :  -0.4375 0.4375 0.3125  plane waves:     631
 k-point 57 :  -0.3125 0.4375 0.3125  plane waves:     637
 k-point 58 :  -0.4375-0.4375 0.3125  plane waves:     633
 k-point 59 :   0.4375 0.4375 0.4375  plane waves:     622
 k-point 60 :  -0.4375 0.4375 0.4375  plane waves:     623

 maximum and minimum number of plane-waves per node :       638      613

 maximum number of plane-waves:       638
 maximum index in each direction: 
   IXMAX=    6   IYMAX=    6   IZMAX=    5
   IXMIN=   -6   IYMIN=   -6   IZMIN=   -6


 serial   3D FFT for wavefunctions
 parallel 3D FFT for charge:
    minimum data exchange during FFTs selected (reduces bandwidth)


 total amount of memory used by VASP MPI-rank0    33921. kBytes
=======================================================================

   base      :      30000. kBytes
   nonl-proj :       2478. kBytes
   fftplans  :        247. kBytes
   grid      :        561. kBytes
   one-center:          6. kBytes
   wavefun   :        629. kBytes
 
     INWAV:  cpu time    0.0000: real time    0.0003
 Broyden mixing: mesh for mixing (old mesh)
   NGX = 11   NGY = 11   NGZ = 11
  (NGX  = 36   NGY  = 36   NGZ  = 36)
  gives a total of   1331 points

 initial charge density was supplied:
 charge density of overlapping atoms calculated
 number of electron       8.0000000 magnetization 
 keeping initial charge density in first step


--------------------------------------------------------------------------------------------------------


 Maximum index for augmentation-charges          638 (set IRDMAX)


--------------------------------------------------------------------------------------------------------


 First call to EWALD:  gamma=   0.509
 Maximum number of real-space cells 3x 3x 3
 Maximum number of reciprocal cells 3x 3x 3

    FEWALD:  cpu time    0.0080: real time    0.0067


--------------------------------------- Iteration      1(   1)  ---------------------------------------


    POTLOK:  cpu time    0.0360: real time    0.0454
    SETDIJ:  cpu time    0.0120: real time    0.0091
     EDDAV:  cpu time    0.7960: real time    0.8019
       DOS:  cpu time    0.0040: real time    0.0035
    --------------------------------------------
      LOOP:  cpu time    0.8480: real time    0.8607

 eigenvalue-minimisations  :   960
 total energy-change (2. order) : 0.4477036E+01  (-0.2695777E+03)
 number of electron       8.0000000 magnetization 
 augmentation part        8.0000000 magnetization 

 Free energy of the ion-electron system (eV)
  ---------------------------------------------------
  alpha Z        PSCENC =         3.18684820
  Ewald energy   TEWEN  =      -224.47567002
  -Hartree energ DENC   =       -11.82861561
  -exchange      EXHF   =         0.00000000
  -V(xc)+E(xc)   XCENC  =       -18.81125109
  PAW double counting   =        65.95520812      -30.76852678
  entropy T*S    EENTRO =        -0.01134104
  eigenvalues    EBANDS =        15.09913031
  atomic energy  EATOM  =       206.13125414
  Solvation  Ediel_sol  =         0.00000000
  ---------------------------------------------------
  free energy    TOTEN  =         4.47703622 eV

  energy without entropy =        4.48837726  energy(sigma->0) =        4.48270674


--------------------------------------------------------------------------------------------------------




--------------------------------------- Iteration      1(   2)  ---------------------------------------


     EDDAV:  cpu time    1.2640: real time    1.2704
       DOS:  cpu time    0.0000: real time    0.0031
    --------------------------------------------
      LOOP:  cpu time    1.2640: real time    1.2734

 eigenvalue-minimisations  :  1560
 total energy-change (2. order) :-0.1528829E+02  (-0.1489410E+02)
 number of electron       8.0000000 magnetization 
 augmentation part        8.0000000 magnetization 

 Free energy of the ion-electron system (eV)
  ---------------------------------------------------
  alpha Z        PSCENC =         3.18684820
  Ewald energy   TEWEN  =      -224.47567002
  -Hartree energ DENC   =       -11.82861561
  -exchange      EXHF   =         0.00000000
  -V(xc)+E(xc)   XCENC  =       -18.81125109
  PAW double counting   =        65.95520812      -30.76852678
  entropy T*S    EENTRO =        -0.00000118
  eigenvalues    EBANDS =        -0.20049961
  atomic energy  EATOM  =       206.13125414
  Solvation  Ediel_sol  =         0.00000000
  ---------------------------------------------------
  free energy    TOTEN  =       -10.81125384 eV

  energy without entropy =      -10.81125266  energy(sigma->0) =      -10.81125325


--------------------------------------------------------------------------------------------------------




--------------------------------------- Iteration      1(   3)  ---------------------------------------


     EDDAV:  cpu time    0.9280: real time    0.9316
       DOS:  cpu time    0.0040: real time    0.0058
    --------------------------------------------
      LOOP:  cpu time    0.9320: real time    0.9386

 eigenvalue-minimisations  :  1128
 total energy-change (2. order) :-0.1741639E+00  (-0.1741639E+00)
 number of electron       8.0000000 magnetization 
 augmentation part        8.0000000 magnetization 

 Free energy of the ion-electron system (eV)
  ---------------------------------------------------
  alpha Z        PSCENC =         3.18684820
  Ewald energy   TEWEN  =      -224.47567002
  -Hartree energ DENC   =       -11.82861561
  -exchange      EXHF   =         0.00000000
  -V(xc)+E(xc)   XCENC  =       -18.81125109
  PAW double counting   =        65.95520812      -30.76852678
  entropy T*S    EENTRO =        -0.00000059
  eigenvalues    EBANDS =        -0.37466412
  atomic energy  EATOM  =       206.13125414
  Solvation  Ediel_sol  =         0.00000000
  ---------------------------------------------------
  free energy    TOTEN  =       -10.98541776 eV

  energy without entropy =      -10.98541717  energy(sigma->0) =      -10.98541746


--------------------------------------------------------------------------------------------------------




--------------------------------------- Iteration      1(   4)  ---------------------------------------


     EDDAV:  cpu time    1.3320: real time    1.4009
       DOS:  cpu time    0.0040: real time    0.0034
    --------------------------------------------
      LOOP:  cpu time    1.3360: real time    1.4032

 eigenvalue-minimisations  :  1640
 total energy-change (2. order) :-0.8572692E-03  (-0.8572695E-03)
 number of electron       8.0000000 magnetization 
 augmentation part        8.0000000 magnetization 

 Free energy of the ion-electron system (eV)
  ---------------------------------------------------
  alpha Z        PSCENC =         3.18684820
  Ewald energy   TEWEN  =      -224.47567002
  -Hartree energ DENC   =       -11.82861561
  -exchange      EXHF   =         0.00000000
  -V(xc)+E(xc)   XCENC  =       -18.81125109
  PAW double counting   =        65.95520812      -30.76852678
  entropy T*S    EENTRO =        -0.00000059
  eigenvalues    EBANDS =        -0.37552139
  atomic energy  EATOM  =       206.13125414
  Solvation  Ediel_sol  =         0.00000000
  ---------------------------------------------------
  free energy    TOTEN  =       -10.98627503 eV

  energy without entropy =      -10.98627444  energy(sigma->0) =      -10.98627473


--------------------------------------------------------------------------------------------------------




--------------------------------------- Iteration      1(   5)  ---------------------------------------


     EDDAV:  cpu time    0.9280: real time    0.9407
       DOS:  cpu time    0.0040: real time    0.0032
    CHARGE:  cpu time    0.0600: real time    0.0626
    MIXING:  cpu time    0.0040: real time    0.0023
    --------------------------------------------
      LOOP:  cpu time    0.9960: real time    1.0092

 eigenvalue-minimisations  :  1136
 total energy-change (2. order) :-0.2387160E-06  (-0.2386584E-06)
 number of electron       7.9999993 magnetization 
 augmentation part       -0.4682147 magnetization 

 Broyden mixing:
  rms(total) = 0.28762E+00    rms(broyden)= 0.28760E+00
  rms(prec ) = 0.82189E+00
  weight for this iteration     100.00

 Free energy of the ion-electron system (eV)
  ---------------------------------------------------
  alpha Z        PSCENC =         3.18684820
  Ewald energy   TEWEN  =      -224.47567002
  -Hartree energ DENC   =       -11.82861561
  -exchange      EXHF   =         0.00000000
  -V(xc)+E(xc)   XCENC  =       -18.81125109
  PAW double counting   =        65.95520812      -30.76852678
  entropy T*S    EENTRO =        -0.00000059
  eigenvalues    EBANDS =        -0.37552163
  atomic energy  EATOM  =       206.13125414
  Solvation  Ediel_sol  =         0.00000000
  ---------------------------------------------------
  free energy    TOTEN  =       -10.98627527 eV

  energy without entropy =      -10.98627468  energy(sigma->0) =      -10.98627497


--------------------------------------------------------------------------------------------------------




--------------------------------------- Iteration      1(   6)  ---------------------------------------


    POTLOK:  cpu time    0.0280: real time    0.0331
    SETDIJ:  cpu time    0.0080: real time    0.0084
     EDDAV:  cpu time    0.9400: real time    0.9395
       DOS:  cpu time    0.0000: real time    0.0032
    CHARGE:  cpu time    0.0640: real time    0.0613
    MIXING:  cpu time    0.0000: real time    0.0020
    --------------------------------------------
      LOOP:  cpu time    1.0400: real time    1.0470

 eigenvalue-minimisations  :  1152
 total energy-change (2. order) : 0.1028688E+00  (-0.6536991E-02)
 number of electron       7.9999993 magnetization 
 augmentation part       -0.4631120 magnetization 

 Broyden mixing:
  rms(total) = 0.17176E+00    rms(broyden)= 0.17176E+00
  rms(prec ) = 0.48845E+00
  weight for this iteration     100.00

 eigenvalues of (default mixing * dielectric matrix)
  average eigenvalue GAMMA=   2.4628
  2.4628

 Free energy of the ion-electron system (eV)
  ---------------------------------------------------
  alpha Z        PSCENC =         3.18684820
  Ewald energy   TEWEN  =      -224.47567002
  -Hartree energ DENC   =       -13.23674550
  -exchange      EXHF   =         0.00000000
  -V(xc)+E(xc)   XCENC  =       -18.58981881
  PAW double counting   =        69.25622187      -34.16012841
  entropy T*S    EENTRO =        -0.00000336
  eigenvalues    EBANDS =         1.00463539
  atomic energy  EATOM  =       206.13125414
  Solvation  Ediel_sol  =         0.00000000
  ---------------------------------------------------
  free energy    TOTEN  =       -10.88340650 eV

  energy without entropy =      -10.88340314  energy(sigma->0) =      -10.88340482


--------------------------------------------------------------------------------------------------------




--------------------------------------- Iteration      1(   7)  ---------------------------------------


    POTLOK:  cpu time    0.0280: real time    0.0343
    SETDIJ:  cpu time    0.0080: real time    0.0084
     EDDAV:  cpu time    0.9680: real time    0.9660
       DOS:  cpu time    0.0000: real time    0.0033
    CHARGE:  cpu time    0.0640: real time    0.0606
    MIXING:  cpu time    0.0000: real time    0.0018
    --------------------------------------------
      LOOP:  cpu time    1.0680: real time    1.0744

 eigenvalue-minimisations  :  1192
 total energy-change (2. order) : 0.4888699E-01  (-0.1269829E-01)
 number of electron       7.9999993 magnetization 
 augmentation part       -0.4569675 magnetization 

 Broyden mixing:
  rms(total) = 0.14243E-01    rms(broyden)= 0.14242E-01
  rms(prec ) = 0.36839E-01
  weight for this iteration     100.00

 eigenvalues of (default mixing * dielectric matrix)
  average eigenvalue GAMMA=   2.4747
  2.4747  2.4747

 Free energy of the ion-electron system (eV)
  ---------------------------------------------------
  alpha Z        PSCENC =         3.18684820
  Ewald energy   TEWEN  =      -224.47567002
  -Hartree energ DENC   =       -15.55184793
  -exchange      EXHF   =         0.00000000
  -V(xc)+E(xc)   XCENC  =       -18.21843059
  PAW double counting   =        73.57567887      -38.59462288
  entropy T*S    EENTRO =        -0.00002473
  eigenvalues    EBANDS =         3.11229543
  atomic energy  EATOM  =       206.13125414
  Solvation  Ediel_sol  =         0.00000000
  ---------------------------------------------------
  free energy    TOTEN  =       -10.83451951 eV

  energy without entropy =      -10.83449478  energy(sigma->0) =      -10.83450715


--------------------------------------------------------------------------------------------------------




--------------------------------------- Iteration      1(   8)  ---------------------------------------


    POTLOK:  cpu time    0.0280: real time    0.0343
    SETDIJ:  cpu time    0.0080: real time    0.0084
     EDDAV:  cpu time    0.9320: real time    0.9311
       DOS:  cpu time    0.0040: real time    0.0035
    CHARGE:  cpu time    0.0600: real time    0.0604
    MIXING:  cpu time    0.0000: real time    0.0019
    --------------------------------------------
      LOOP:  cpu time    1.0320: real time    1.0397

 eigenvalue-minimisations  :  1144
 total energy-change (2. order) :-0.1333103E-02  (-0.3782159E-03)
 number of electron       7.9999993 magnetization 
 augmentation part       -0.4579041 magnetization 

 Broyden mixing:
  rms(total) = 0.25108E-02    rms(broyden)= 0.25099E-02
  rms(prec ) = 0.82934E-02
  weight for this iteration     100.00

 eigenvalues of (default mixing * dielectric matrix)
  average eigenvalue GAMMA=   2.1260
  1.3252  2.8085  2.2443

 Free energy of the ion-electron system (eV)
  ---------------------------------------------------
  alpha Z        PSCENC =         3.18684820
  Ewald energy   TEWEN  =      -224.47567002
  -Hartree energ DENC   =       -15.51602109
  -exchange      EXHF   =         0.00000000
  -V(xc)+E(xc)   XCENC  =       -18.21334901
  PAW double counting   =        72.70994561      -37.70197116
  entropy T*S    EENTRO =        -0.00001914
  eigenvalues    EBANDS =         3.04312985
  atomic energy  EATOM  =       206.13125414
  Solvation  Ediel_sol  =         0.00000000
  ---------------------------------------------------
  free energy    TOTEN  =       -10.83585262 eV

  energy without entropy =      -10.83583347  energy(sigma->0) =      -10.83584304


--------------------------------------------------------------------------------------------------------




--------------------------------------- Iteration      1(   9)  ---------------------------------------


    POTLOK:  cpu time    0.0280: real time    0.0331
    SETDIJ:  cpu time    0.0080: real time    0.0083
     EDDAV:  cpu time    0.6680: real time    0.6679
       DOS:  cpu time    0.0040: real time    0.0034
    --------------------------------------------
      LOOP:  cpu time    0.7080: real time    0.7126

 eigenvalue-minimisations  :   744
 total energy-change (2. order) :-0.1053744E-03  (-0.1070206E-04)
 number of electron       7.9999993 magnetization 
 augmentation part       -0.4579041 magnetization 

 Free energy of the ion-electron system (eV)
  ---------------------------------------------------
  alpha Z        PSCENC =         3.18684820
  Ewald energy   TEWEN  =      -224.47567002
  -Hartree energ DENC   =       -15.55541937
  -exchange      EXHF   =         0.00000000
  -V(xc)+E(xc)   XCENC  =       -18.20695087
  PAW double counting   =        72.68641876      -37.67810128
  entropy T*S    EENTRO =        -0.00001890
  eigenvalues    EBANDS =         3.07568134
  atomic energy  EATOM  =       206.13125414
  Solvation  Ediel_sol  =         0.00000000
  ---------------------------------------------------
  free energy    TOTEN  =       -10.83595799 eV

  energy without entropy =      -10.83593909  energy(sigma->0) =      -10.83594854


--------------------------------------------------------------------------------------------------------




 average (electrostatic) potential at core
  the test charge radii are     0.9892
  (the norm of the test charge is              1.0000)
       1 -83.8469       2 -83.8469
 
 
 
 E-fermi :   5.6463     XC(G=0):  -9.2031     alpha+bet :-11.3529


 k-point     1 :       0.0625    0.0625    0.0625
  band No.  band energies     occupation 
      1      -6.2539      2.00000
      2       4.7581      2.00000
      3       5.2149      1.99772
      4       5.2149      1.99772
      5       7.8194      0.00000
      6       7.9551      0.00000
      7       7.9551      0.00000
      8       8.5297      0.00000

 k-point     2 :       0.1875    0.0625    0.0625
  band No.  band energies     occupation 
      1      -5.9951      2.00000
      2       3.2697      2.00000
      3       4.4411      2.00000
      4       5.0982      1.99989
      5       7.8342      0.00000
      6       8.1936      0.00000
      7       8.4557      0.00000
      8      10.0559      0.00000

 k-point     3 :       0.3125    0.0625    0.0625
  band No.  band energies     occupation 
      1      -5.3717      2.00000
      2       1.1115      2.00000
      3       3.9630      2.00000
      4       4.6513      2.00000
      5       7.3813      0.00000
      6       8.6850      0.00000
      7       8.9601      0.00000
      8      11.6703      0.00000

 k-point     4 :       0.4375    0.0625    0.0625
  band No.  band energies     occupation 
      1      -4.5071      2.00000
      2      -0.7081      2.00000
      3       3.7481      2.00000
      4       4.2579      2.00000
      5       7.0687      0.00000
      6       8.7698      0.00000
      7       8.7835      0.00000
      8      12.9760      0.00000

 k-point     5 :      -0.4375    0.0625    0.0625
  band No.  band energies     occupation 
      1      -4.0831      2.00000
      2      -1.3768      2.00000
      3       3.7925      2.00000
      4       4.0486      2.00000
      5       6.9905      0.00000
      6       8.5879      0.00000
      7       8.8491      0.00000
      8      13.0804      0.00000

 k-point     6 :      -0.3125    0.0625    0.0625
  band No.  band energies     occupation 
      1      -4.8021      2.00000
      2      -0.1716      2.00000
      3       4.0689      2.00000
      4       4.0716      2.00000
      5       7.1588      0.00000
      6       8.5808      0.00000
      7       9.0866      0.00000
      8      12.1174      0.00000

 k-point     7 :      -0.1875    0.0625    0.0625
  band No.  band energies     occupation 
      1      -5.6159      2.00000
      2       1.8184      2.00000
      3       4.3417      2.00000
      4       4.5199      2.00000
      5       7.5242      0.00000
      6       8.4062      0.00000
      7       9.1149      0.00000
      8      10.9073      0.00000

 k-point     8 :      -0.0625    0.0625    0.0625
  band No.  band energies     occupation 
      1      -6.1238      2.00000
      2       4.0057      2.00000
      3       4.8078      2.00000
      4       4.9508      2.00000
      5       7.6741      0.00000
      6       8.1587      0.00000
      7       8.5113      0.00000
      8       9.3052      0.00000

 k-point     9 :       0.1875    0.1875    0.0625
  band No.  band energies     occupation 
      1      -5.8648      2.00000
      2       3.1109      2.00000
      3       4.2719      2.00000
      4       4.3410      2.00000
      5       7.2710      0.00000
      6       8.8784      0.00000
      7       9.3405      0.00000
      8       9.7940      0.00000

 k-point    10 :       0.3125    0.1875    0.0625
  band No.  band energies     occupation 
      1      -5.3590      2.00000
      2       1.6475      2.00000
      3       3.3349      2.00000
      4       4.0926      2.00000
      5       7.4327      0.00000
      6       8.9824      0.00000
      7       9.7422      0.00000
      8      10.1168      0.00000

 k-point    11 :       0.4375    0.1875    0.0625
  band No.  band energies     occupation 
      1      -4.5469      2.00000
      2      -0.1386      2.00000
      3       2.8419      2.00000
      4       3.7016      2.00000
      5       7.6080      0.00000
      6       8.9777      0.00000
      7      10.1450      0.00000
      8      10.4548      0.00000

 k-point    12 :      -0.4375    0.1875    0.0625
  band No.  band energies     occupation 
      1      -3.8230      2.00000
      2      -1.2934      2.00000
      3       2.5582      2.00000
      4       3.6135      2.00000
      5       7.6574      0.00000
      6       8.7180      0.00000
      7      10.0114      0.00000
      8      12.3949      0.00000

 k-point    13 :      -0.3125    0.1875    0.0625
  band No.  band energies     occupation 
      1      -4.2570      2.00000
      2      -0.6360      2.00000
      3       2.4939      2.00000
      4       3.8852      2.00000
      5       7.9024      0.00000
      6       8.6556      0.00000
      7       9.9511      0.00000
      8      11.6734      0.00000

 k-point    14 :      -0.1875    0.1875    0.0625
  band No.  band energies     occupation 
      1      -5.1205      2.00000
      2       1.0218      2.00000
      3       2.8002      2.00000
      4       4.3712      2.00000
      5       8.2154      0.00000
      6       8.5413      0.00000
      7       9.8232      0.00000
      8      10.3216      0.00000

 k-point    15 :      -0.0625    0.1875    0.0625
  band No.  band energies     occupation 
      1      -5.7392      2.00000
      2       2.4645      2.00000
      3       3.8852      2.00000
      4       4.7290      2.00000
      5       7.8025      0.00000
      6       8.3779      0.00000
      7       9.1602      0.00000
      8      10.3325      0.00000

 k-point    16 :       0.3125    0.3125    0.0625
  band No.  band energies     occupation 
      1      -4.9721      2.00000
      2       1.1336      2.00000
      3       3.1991      2.00000
      4       3.3163      2.00000
      5       6.4911      0.00000
      6       8.1233      0.00000
      7      11.1308      0.00000
      8      11.2869      0.00000

 k-point    17 :       0.4375    0.3125    0.0625
  band No.  band energies     occupation 
      1      -4.2479      2.00000
      2      -0.0655      2.00000
      3       2.4445      2.00000
      4       2.9840      2.00000
      5       6.7990      0.00000
      6       7.9663      0.00000
      7      11.0970      0.00000
      8      12.2479      0.00000

 k-point    18 :      -0.4375    0.3125    0.0625
  band No.  band energies     occupation 
      1      -3.3891      2.00000
      2      -1.2128      2.00000
      3       1.6368      2.00000
      4       2.9531      2.00000
      5       7.0325      0.00000
      6       9.5785      0.00000
      7      10.6836      0.00000
      8      12.1608      0.00000

 k-point    19 :      -0.3125    0.3125    0.0625
  band No.  band energies     occupation 
      1      -3.4598      2.00000
      2      -1.1207      2.00000
      3       1.3017      2.00000
      4       3.2829      2.00000
      5       7.4151      0.00000
      6      10.2692      0.00000
      7      11.5081      0.00000
      8      11.8734      0.00000

 k-point    20 :      -0.1875    0.3125    0.0625
  band No.  band energies     occupation 
      1      -4.3182      2.00000
      2      -0.1906      2.00000
      3       1.8762      2.00000
      4       3.8436      2.00000
      5       7.9994      0.00000
      6       9.1936      0.00000
      7      10.5598      0.00000
      8      10.8704      0.00000

 k-point    21 :      -0.0625    0.3125    0.0625
  band No.  band energies     occupation 
      1      -5.0121      2.00000
      2       0.4545      2.00000
      3       3.4347      2.00000
      4       4.2745      2.00000
      5       7.6616      0.00000
      6       8.5834      0.00000
      7       9.4222      0.00000
      8      11.0779      0.00000

 k-point    22 :       0.4375    0.4375    0.0625
  band No.  band energies     occupation 
      1      -3.6164      2.00000
      2      -0.9039      2.00000
      3       2.5372      2.00000
      4       2.7424      2.00000
      5       6.1189      0.00083
      6       6.8237      0.00000
      7      13.3575      0.00000
      8      13.3880      0.00000

 k-point    23 :      -0.4375    0.4375    0.0625
  band No.  band energies     occupation 
      1      -2.7410      2.00000
      2      -1.8611      2.00000
      3       2.0072      2.00000
      4       2.5116      2.00000
      5       6.5419      0.00000
      6       7.2474      0.00000
      7      13.1298      0.00000
      8      14.0816      0.00000

 k-point    24 :      -0.3125    0.4375    0.0625
  band No.  band energies     occupation 
      1      -2.8437      2.00000
      2      -1.6948      2.00000
      3       1.3123      2.00000
      4       2.8146      2.00000
      5       6.8921      0.00000
      6       9.4224      0.00000
      7      11.6495      0.00000
      8      12.7448      0.00000

 k-point    25 :      -0.1875    0.4375    0.0625
  band No.  band energies     occupation 
      1      -3.5755      2.00000
      2      -1.2664      2.00000
      3       1.8185      2.00000
      4       3.3919      2.00000
      5       7.5243      0.00000
      6       9.4327      0.00000
      7      10.9258      0.00000
      8      12.1534      0.00000

 k-point    26 :      -0.0625    0.4375    0.0625
  band No.  band energies     occupation 
      1      -4.1605      2.00000
      2      -1.0983      2.00000
      3       3.2581      2.00000
      4       3.9534      2.00000
      5       7.4516      0.00000
      6       8.5226      0.00000
      7       9.2612      0.00000
      8      12.7164      0.00000

 k-point    27 :      -0.4375   -0.4375    0.0625
  band No.  band energies     occupation 
      1      -2.7883      2.00000
      2      -1.8764      2.00000
      3       2.4043      2.00000
      4       2.6251      2.00000
      5       6.1222      0.00077
      6       6.4726      0.00000
      7      14.4036      0.00000
      8      14.4542      0.00000

 k-point    28 :      -0.3125   -0.4375    0.0625
  band No.  band energies     occupation 
      1      -3.5355      2.00000
      2      -0.9662      2.00000
      3       2.1569      2.00000
      4       2.6660      2.00000
      5       6.6218      0.00000
      6       7.4958      0.00000
      7      12.0878      0.00000
      8      13.3678      0.00000

 k-point    29 :      -0.1875   -0.4375    0.0625
  band No.  band energies     occupation 
      1      -3.9939      2.00000
      2      -0.6840      2.00000
      3       2.1992      2.00000
      4       3.2418      2.00000
      5       7.2944      0.00000
      6       9.7543      0.00000
      7       9.9181      0.00000
      8      11.1366      0.00000

 k-point    30 :      -0.3125   -0.3125    0.0625
  band No.  band energies     occupation 
      1      -4.3482      2.00000
      2       0.1083      2.00000
      3       2.8026      2.00000
      4       2.9747      2.00000
      5       6.2403      0.00003
      6       7.3869      0.00000
      7      12.2277      0.00000
      8      12.3244      0.00000

 k-point    31 :      -0.1875   -0.3125    0.0625
  band No.  band energies     occupation 
      1      -4.8594      2.00000
      2       0.8086      2.00000
      3       2.8459      2.00000
      4       3.4710      2.00000
      5       7.0758      0.00000
      6       8.6119      0.00000
      7      10.1808      0.00000
      8      11.1527      0.00000

 k-point    32 :      -0.1875   -0.1875    0.0625
  band No.  band energies     occupation 
      1      -5.4796      2.00000
      2       2.1437      2.00000
      3       3.7207      2.00000
      4       3.7563      2.00000
      5       6.8488      0.00000
      6       8.9153      0.00000
      7      10.1299      0.00000
      8      10.2856      0.00000

 k-point    33 :       0.1875    0.1875    0.1875
  band No.  band energies     occupation 
      1      -5.8681      2.00000
      2       2.5715      2.00000
      3       4.7894      2.00000
      4       4.7894      2.00000
      5       7.3821      0.00000
      6       8.5541      0.00000
      7       8.5541      0.00000
      8      10.6791      0.00000

 k-point    34 :       0.3125    0.1875    0.1875
  band No.  band energies     occupation 
      1      -5.4897      2.00000
      2       1.7366      2.00000
      3       3.3334      2.00000
      4       4.8022      2.00000
      5       8.0346      0.00000
      6       8.6769      0.00000
      7       8.9500      0.00000
      8      10.8513      0.00000

 k-point    35 :       0.4375    0.1875    0.1875
  band No.  band energies     occupation 
      1      -4.7701      2.00000
      2       0.3985      2.00000
      3       2.2914      2.00000
      4       4.3164      2.00000
      5       7.9345      0.00000
      6       9.4147      0.00000
      7       9.5976      0.00000
      8      11.1372      0.00000

 k-point    36 :      -0.4375    0.1875    0.1875
  band No.  band energies     occupation 
      1      -3.9145      2.00000
      2      -1.0270      2.00000
      3       2.1307      2.00000
      4       3.8059      2.00000
      5       7.4770      0.00000
      6       9.5567      0.00000
      7       9.8156      0.00000
      8      12.9663      0.00000

 k-point    37 :      -0.3125    0.1875    0.1875
  band No.  band energies     occupation 
      1      -3.8991      2.00000
      2      -1.0547      2.00000
      3       2.4153      2.00000
      4       3.5010      2.00000
      5       7.2229      0.00000
      6       9.6138      0.00000
      7      10.1528      0.00000
      8      11.0953      0.00000

 k-point    38 :      -0.1875    0.1875    0.1875
  band No.  band energies     occupation 
      1      -4.7530      2.00000
      2       0.3954      2.00000
      3       3.0093      2.00000
      4       3.4802      2.00000
      5       7.1613      0.00000
      6       9.2772      0.00000
      7       9.9073      0.00000
      8      10.4990      0.00000

 k-point    39 :       0.3125    0.3125    0.1875
  band No.  band energies     occupation 
      1      -5.2420      2.00000
      2       1.0949      2.00000
      3       3.8022      2.00000
      4       3.8841      2.00000
      5       7.5201      0.00000
      6       8.8044      0.00000
      7       9.7712      0.00000
      8      10.1727      0.00000

 k-point    40 :       0.4375    0.3125    0.1875
  band No.  band energies     occupation 
      1      -4.6383      2.00000
      2       0.3252      2.00000
      3       2.3465      2.00000
      4       3.6936      2.00000
      5       8.0161      0.00000
      6       8.9884      0.00000
      7       9.5431      0.00000
      8      10.9826      0.00000

 k-point    41 :      -0.4375    0.3125    0.1875
  band No.  band energies     occupation 
      1      -3.7823      2.00000
      2      -0.7492      2.00000
      3       1.5898      2.00000
      4       3.1519      2.00000
      5       8.4579      0.00000
      6       8.9353      0.00000
      7      10.1781      0.00000
      8      12.0504      0.00000

 k-point    42 :      -0.3125    0.3125    0.1875
  band No.  band energies     occupation 
      1      -3.3175      2.00000
      2      -1.3344      2.00000
      3       1.5869      2.00000
      4       2.8535      2.00000
      5       8.0092      0.00000
      6       9.2536      0.00000
      7      10.9408      0.00000
      8      12.1626      0.00000

 k-point    43 :      -0.1875    0.3125    0.1875
  band No.  band energies     occupation 
      1      -4.0541      2.00000
      2      -0.3747      2.00000
      3       1.9986      2.00000
      4       3.0242      2.00000
      5       7.7461      0.00000
      6       8.9446      0.00000
      7       9.7442      0.00000
      8      12.1662      0.00000

 k-point    44 :       0.4375    0.4375    0.1875
  band No.  band energies     occupation 
      1      -4.1591      2.00000
      2      -0.3136      2.00000
      3       2.3154      2.00000
      4       3.1607      2.00000
      5       6.8015      0.00000
      6       8.7801      0.00000
      7      10.9224      0.00000
      8      11.3017      0.00000

 k-point    45 :      -0.4375    0.4375    0.1875
  band No.  band energies     occupation 
      1      -3.3852      2.00000
      2      -1.1009      2.00000
      3       1.7687      2.00000
      4       2.5107      2.00000
      5       7.5527      0.00000
      6       8.5462      0.00000
      7      10.6176      0.00000
      8      13.3285      0.00000

 k-point    46 :      -0.3125    0.4375    0.1875
  band No.  band energies     occupation 
      1      -2.6105      2.00000
      2      -1.8351      2.00000
      3       1.4687      2.00000
      4       2.0319      2.00000
      5       8.6487      0.00000
      6       9.5699      0.00000
      7      10.1707      0.00000
      8      11.1656      0.00000

 k-point    47 :      -0.1875    0.4375    0.1875
  band No.  band energies     occupation 
      1      -3.1912      2.00000
      2      -1.2982      2.00000
      3       1.4561      2.00000
      4       2.4875      2.00000
      5       8.7443      0.00000
      6       9.1493      0.00000
      7       9.8739      0.00000
      8      12.3009      0.00000

 k-point    48 :      -0.4375   -0.4375    0.1875
  band No.  band energies     occupation 
      1      -2.7651      2.00000
      2      -1.8099      2.00000
      3       1.5679      2.00000
      4       2.8297      2.00000
      5       6.3895      0.00000
      6       8.2333      0.00000
      7      13.0593      0.00000
      8      13.2152      0.00000

 k-point    49 :      -0.3125   -0.4375    0.1875
  band No.  band energies     occupation 
      1      -2.6679      2.00000
      2      -1.8434      2.00000
      3       1.6579      2.00000
      4       2.2345      2.00000
      5       7.4539      0.00000
      6       8.3455      0.00000
      7      11.5982      0.00000
      8      12.6805      0.00000

 k-point    50 :      -0.3125   -0.3125    0.1875
  band No.  band energies     occupation 
      1      -3.4786      2.00000
      2      -1.0605      2.00000
      3       1.8197      2.00000
      4       2.9412      2.00000
      5       6.5318      0.00000
      6       8.4147      0.00000
      7      12.0527      0.00000
      8      12.1810      0.00000

 k-point    51 :       0.3125    0.3125    0.3125
  band No.  band energies     occupation 
      1      -5.1395      2.00000
      2       0.4333      2.00000
      3       4.3876      2.00000
      4       4.3876      2.00000
      5       6.9294      0.00000
      6       8.8025      0.00000
      7       8.8025      0.00000
      8      12.7224      0.00000

 k-point    52 :       0.4375    0.3125    0.3125
  band No.  band energies     occupation 
      1      -4.6780      2.00000
      2      -0.1350      2.00000
      3       2.9666      2.00000
      4       4.3016      2.00000
      5       7.6646      0.00000
      6       9.0148      0.00000
      7       9.0677      0.00000
      8      12.1428      0.00000

 k-point    53 :      -0.4375    0.3125    0.3125
  band No.  band energies     occupation 
      1      -3.9161      2.00000
      2      -0.6794      2.00000
      3       1.5121      2.00000
      4       3.7447      2.00000
      5       7.4172      0.00000
      6      10.4101      0.00000
      7      10.5532      0.00000
      8      11.8814      0.00000

 k-point    54 :      -0.3125    0.3125    0.3125
  band No.  band energies     occupation 
      1      -3.1287      2.00000
      2      -1.4447      2.00000
      3       1.1945      2.00000
      4       3.2189      2.00000
      5       6.8360      0.00000
      6      10.6387      0.00000
      7      11.6450      0.00000
      8      11.8456      0.00000

 k-point    55 :       0.4375    0.4375    0.3125
  band No.  band energies     occupation 
      1      -4.3771      2.00000
      2      -0.6719      2.00000
      3       3.2820      2.00000
      4       3.7620      2.00000
      5       7.4222      0.00000
      6       8.7676      0.00000
      7       9.5421      0.00000
      8      11.5225      0.00000

 k-point    56 :      -0.4375    0.4375    0.3125
  band No.  band energies     occupation 
      1      -3.7818      2.00000
      2      -1.0366      2.00000
      3       2.0293      2.00000
      4       3.3096      2.00000
      5       8.1955      0.00000
      6       8.5701      0.00000
      7      10.9939      0.00000
      8      11.2866      0.00000

 k-point    57 :      -0.3125    0.4375    0.3125
  band No.  band energies     occupation 
      1      -2.9946      2.00000
      2      -1.5140      2.00000
      3       1.2834      2.00000
      4       2.6263      2.00000
      5       7.8878      0.00000
      6      10.0831      0.00000
      7      10.8276      0.00000
      8      11.3286      0.00000

 k-point    58 :      -0.4375   -0.4375    0.3125
  band No.  band energies     occupation 
      1      -3.4384      2.00000
      2      -1.3136      2.00000
      3       1.6598      2.00000
      4       3.3151      2.00000
      5       6.9762      0.00000
      6      10.5947      0.00000
      7      10.8918      0.00000
      8      10.8996      0.00000

 k-point    59 :       0.4375    0.4375    0.4375
  band No.  band energies     occupation 
      1      -4.2895      2.00000
      2      -1.1509      2.00000
      3       4.1718      2.00000
      4       4.1718      2.00000
      5       6.6776      0.00000
      6       8.6846      0.00000
      7       8.6846      0.00000
      8      12.9860      0.00000

 k-point    60 :      -0.4375    0.4375    0.4375
  band No.  band energies     occupation 
      1      -3.9539      2.00000
      2      -1.3254      2.00000
      3       2.9785      2.00000
      4       3.9156      2.00000
      5       7.4319      0.00000
      6       8.7825      0.00000
      7       9.2441      0.00000
      8      13.3062      0.00000


--------------------------------------------------------------------------------------------------------


 soft charge-density along one line, spin component           1
         0         1         2         3         4         5         6         7         8         9
 total charge-density along one line
 
 pseudopotential strength for first ion, spin component:           1
 18.474  -0.000  -0.000  -0.000  -0.000   0.000   0.000   0.000
 -0.000   0.006   0.000   0.000   0.000  -0.000  -0.000  -0.000
 -0.000   0.000   4.184  -0.000  -0.000  -0.004   0.000   0.000
 -0.000   0.000  -0.000   4.184  -0.000   0.000  -0.004   0.000
 -0.000   0.000  -0.000  -0.000   4.184   0.000   0.000  -0.004
  0.000  -0.000  -0.004   0.000   0.000   0.005  -0.000  -0.000
  0.000  -0.000   0.000  -0.004   0.000  -0.000   0.005  -0.000
  0.000  -0.000   0.000   0.000  -0.004  -0.000  -0.000   0.005
 total augmentation occupancy for first ion, spin component:           1
  1.503  -0.715   0.000   0.000   0.000  -0.000  -0.000   0.000
 -0.715   0.690  -0.000  -0.000   0.000  -0.000  -0.000   0.000
  0.000  -0.000   0.994   0.000  -0.000  -0.530  -0.000   0.000
  0.000  -0.000   0.000   0.994  -0.000  -0.000  -0.530   0.000
  0.000   0.000  -0.000  -0.000   0.994   0.000   0.000  -0.530
 -0.000  -0.000  -0.530  -0.000   0.000   0.333   0.000  -0.000
 -0.000  -0.000  -0.000  -0.530   0.000   0.000   0.333  -0.000
  0.000   0.000   0.000   0.000  -0.530  -0.000  -0.000   0.333


------------------------ aborting loop because EDIFF is reached ----------------------------------------


    CHARGE:  cpu time    0.0600: real time    0.0596
    FORLOC:  cpu time    0.0000: real time    0.0009
    FORNL :  cpu time    0.0240: real time    0.0242
    STRESS:  cpu time    0.2800: real time    0.2832
    FORCOR:  cpu time    0.0240: real time    0.0216
    FORHAR:  cpu time    0.0040: real time    0.0054
    MIXING:  cpu time    0.0000: real time    0.0015
    OFIELD:  cpu time    0.0000: real time    0.0005

  FORCE on cell =-STRESS in cart. coord.  units (eV):
  Direction    XX          YY          ZZ          XY          YZ          ZX
  --------------------------------------------------------------------------------------
  Alpha Z     3.18685     3.18685     3.18685
  Ewald     -74.82526   -74.82526   -74.82526    -0.00000     0.00000     0.00000
  Hartree     5.18871     5.18871     5.18871     0.00000     0.00000     0.00000
  E(xc)     -25.06030   -25.06030   -25.06030    -0.00000    -0.00000    -0.00000
  Local     -30.00313   -30.00313   -30.00313     0.00004     0.00004     0.00004
  n-local    76.81158    79.35662    74.61808     1.01085    -1.10067     0.04602
  augment   -11.64883   -11.64883   -11.64883    -0.00003    -0.00003    -0.00003
  Kinetic    56.91658    55.27968    54.33806     0.84117    -0.93678     0.04747
  Fock        0.00000     0.00000     0.00000     0.00000     0.00000     0.00000
  -------------------------------------------------------------------------------------
  Total      -0.72177    -0.72177    -0.72177     0.00000    -0.00000    -0.00000
  in kB     -27.36872   -27.36872   -27.36872     0.00000    -0.00000    -0.00000
  external pressure =      -27.37 kB  Pullay stress =        0.00 kB


 VOLUME and BASIS-vectors are now :
 -----------------------------------------------------------------------------
  energy-cutoff  :      350.00
  volume of cell :       42.25
      direct lattice vectors                 reciprocal lattice vectors
     0.000000000  2.764442000  2.764442000    -0.180868327  0.180868327  0.180868327
     2.764442000  0.000000000  2.764442000     0.180868327 -0.180868327  0.180868327
     2.764442000  2.764442000  0.000000000     0.180868327  0.180868327 -0.180868327

  length of vectors
     3.909511369  3.909511369  3.909511369     0.313273132  0.313273132  0.313273132


 FORCES acting on ions
    electron-ion (+dipol)            ewald-force                    non-local-force                 convergence-correction
 -----------------------------------------------------------------------------------------------
   0.167E-05 0.167E-05 0.173E-05   0.256E-14 0.510E-15 0.211E-15   0.127E-16 0.266E-16 0.143E-16   -.490E-06 -.490E-06 -.490E-06
   -.167E-05 -.167E-05 -.173E-05   -.244E-14 -.861E-15 -.306E-15   -.168E-16 -.272E-16 -.151E-16   0.490E-06 0.490E-06 0.490E-06
 -----------------------------------------------------------------------------------------------
   -.575E-13 -.877E-13 -.704E-13   0.120E-15 -.352E-15 -.946E-16   -.411E-17 -.644E-18 -.803E-18   -.262E-14 -.364E-14 0.703E-15
 
 
 POSITION                                       TOTAL-FORCE (eV/Angst)
 -----------------------------------------------------------------------------------
      2.76444      2.76444      2.76444         0.000000      0.000000      0.000000
      4.14666      4.14666      4.14666        -0.000000     -0.000000     -0.000000
 -----------------------------------------------------------------------------------
    total drift:                               -0.000000     -0.000000     -0.000000


--------------------------------------------------------------------------------------------------------



  FREE ENERGIE OF THE ION-ELECTRON SYSTEM (eV)
  ---------------------------------------------------
  free  energy   TOTEN  =       -10.83595799 eV

  energy  without entropy=      -10.83593909  energy(sigma->0) =      -10.83594854
 


--------------------------------------------------------------------------------------------------------


    POTLOK:  cpu time    0.0400: real time    0.0467


--------------------------------------------------------------------------------------------------------




--------------------------------------------------------------------------------------------------------


  
 reached required accuracy - stopping structural energy minimisation
 writing wavefunctions
     LOOP+:  cpu time   10.8920: real time   11.5952
    4ORBIT:  cpu time    0.0000: real time    0.0000

 total amount of memory used by VASP MPI-rank0    33921. kBytes
=======================================================================

   base      :      30000. kBytes
   nonl-proj :       2478. kBytes
   fftplans  :        247. kBytes
   grid      :        561. kBytes
   one-center:          6. kBytes
   wavefun   :        629. kBytes
 
  
  
 General timing and accounting informations for this job:
 ========================================================
  
                  Total CPU time used (sec):       14.968
                            User time (sec):       13.052
                          System time (sec):        1.916
                         Elapsed time (sec):       17.156
  
                   Maximum memory used (kb):        9868.
                   Average memory used (kb):           0.
  
                          Minor page faults:        38222
                          Major page faults:           19
                 Voluntary context switches:        40288
