<?xml version="1.0" encoding="ISO-8859-1"?>
<modeling>
 <generator>
  <i name="program" type="string">vasp </i>
  <i name="version" type="string">5.4.4.18Apr17-6-g9f103f2a35  </i>
  <i name="subversion" type="string">(build Dec 09 2018 21:25:21) complex            parallel </i>
  <i name="platform" type="string">IFC18.0.1.163_CrayMPICH7.7.0_MKL18.0.1.163 </i>
  <i name="date" type="string">2019 03 23 </i>
  <i name="time" type="string">21:26:43 </i>
 </generator>
 <incar>
  <i type="string" name="PREC">normal</i>
  <i type="int" name="IBRION">     2</i>
  <i name="EDIFF">      0.00040000</i>
  <i name="EDIFFG">     -0.01000000</i>
  <i type="int" name="NSW">    15</i>
  <i type="int" name="ISIF">     2</i>
  <i name="ENCUT">    350.00000000</i>
  <i type="int" name="NBANDS">     8</i>
  <i type="logical" name="LREAL"> F  </i>
  <i type="int" name="ISMEAR">     0</i>
  <i name="SIGMA">      0.20000000</i>
  <v type="int" name="KPOINT_BSE">    -1     0     0     0</v>
 </incar>
 <structure name="primitive_cell" >
  <crystal>
   <varray name="basis" >
    <v>       0.00000000       2.76444200       2.76444200 </v>
    <v>       2.76444200       0.00000000       2.76444200 </v>
    <v>       2.76444200       2.76444200       0.00000000 </v>
   </varray>
   <i name="volume">     42.25250320 </i>
   <varray name="rec_basis" >
    <v>      -0.18086833       0.18086833       0.18086833 </v>
    <v>       0.18086833      -0.18086833       0.18086833 </v>
    <v>       0.18086833       0.18086833      -0.18086833 </v>
   </varray>
  </crystal>
  <varray name="positions" >
   <v>      -0.50000000      -0.50000000      -0.50000000 </v>
   <v>      -0.25000000      -0.25000000      -0.25000000 </v>
  </varray>
 </structure>
 <varray name="primitive_index" >
  <v type="int" >        1 </v>
  <v type="int" >        2 </v>
 </varray>
 <kpoints>
  <generation param="Monkhorst-Pack">
   <v type="int" name="divisions">       8        8        8 </v>
   <v name="usershift">      0.00000000       0.00000000       0.00000000 </v>
   <v name="genvec1">      0.12500000      -0.00000000       0.00000000 </v>
   <v name="genvec2">     -0.00000000       0.12500000      -0.00000000 </v>
   <v name="genvec3">      0.00000000       0.00000000       0.12500000 </v>
   <v name="shift">      0.50000000       0.50000000       0.50000000 </v>
  </generation>
  <varray name="kpointlist" >
   <v>       0.06250000       0.06250000       0.06250000 </v>
   <v>       0.18750000       0.06250000       0.06250000 </v>
   <v>       0.31250000       0.06250000       0.06250000 </v>
   <v>       0.43750000       0.06250000       0.06250000 </v>
   <v>      -0.43750000       0.06250000       0.06250000 </v>
   <v>      -0.31250000       0.06250000       0.06250000 </v>
   <v>      -0.18750000       0.06250000       0.06250000 </v>
   <v>      -0.06250000       0.06250000       0.06250000 </v>
   <v>       0.18750000       0.18750000       0.06250000 </v>
   <v>       0.31250000       0.18750000       0.06250000 </v>
   <v>       0.43750000       0.18750000       0.06250000 </v>
   <v>      -0.43750000       0.18750000       0.06250000 </v>
   <v>      -0.31250000       0.18750000       0.06250000 </v>
   <v>      -0.18750000       0.18750000       0.06250000 </v>
   <v>      -0.06250000       0.18750000       0.06250000 </v>
   <v>       0.31250000       0.31250000       0.06250000 </v>
   <v>       0.43750000       0.31250000       0.06250000 </v>
   <v>      -0.43750000       0.31250000       0.06250000 </v>
   <v>      -0.31250000       0.31250000       0.06250000 </v>
   <v>      -0.18750000       0.31250000       0.06250000 </v>
   <v>      -0.06250000       0.31250000       0.06250000 </v>
   <v>       0.43750000       0.43750000       0.06250000 </v>
   <v>      -0.43750000       0.43750000       0.06250000 </v>
   <v>      -0.31250000       0.43750000       0.06250000 </v>
   <v>      -0.18750000       0.43750000       0.06250000 </v>
   <v>      -0.06250000       0.43750000       0.06250000 </v>
   <v>      -0.43750000      -0.43750000       0.06250000 </v>
   <v>      -0.31250000      -0.43750000       0.06250000 </v>
   <v>      -0.18750000      -0.43750000       0.06250000 </v>
   <v>      -0.31250000      -0.31250000       0.06250000 </v>
   <v>      -0.18750000      -0.31250000       0.06250000 </v>
   <v>      -0.18750000      -0.18750000       0.06250000 </v>
   <v>       0.18750000       0.18750000       0.18750000 </v>
   <v>       0.31250000       0.18750000       0.18750000 </v>
   <v>       0.43750000       0.18750000       0.18750000 </v>
   <v>      -0.43750000       0.18750000       0.18750000 </v>
   <v>      -0.31250000       0.18750000       0.18750000 </v>
   <v>      -0.18750000       0.18750000       0.18750000 </v>
   <v>       0.31250000       0.31250000       0.18750000 </v>
   <v>       0.43750000       0.31250000       0.18750000 </v>
   <v>      -0.43750000       0.31250000       0.18750000 </v>
   <v>      -0.31250000       0.31250000       0.18750000 </v>
   <v>      -0.18750000       0.31250000       0.18750000 </v>
   <v>       0.43750000       0.43750000       0.18750000 </v>
   <v>      -0.43750000       0.43750000       0.18750000 </v>
   <v>      -0.31250000       0.43750000       0.18750000 </v>
   <v>      -0.18750000       0.43750000       0.18750000 </v>
   <v>      -0.43750000      -0.43750000       0.18750000 </v>
   <v>      -0.31250000      -0.43750000       0.18750000 </v>
   <v>      -0.31250000      -0.31250000       0.18750000 </v>
   <v>       0.31250000       0.31250000       0.31250000 </v>
   <v>       0.43750000       0.31250000       0.31250000 </v>
   <v>      -0.43750000       0.31250000       0.31250000 </v>
   <v>      -0.31250000       0.31250000       0.31250000 </v>
   <v>       0.43750000       0.43750000       0.31250000 </v>
   <v>      -0.43750000       0.43750000       0.31250000 </v>
   <v>      -0.31250000       0.43750000       0.31250000 </v>
   <v>      -0.43750000      -0.43750000       0.31250000 </v>
   <v>       0.43750000       0.43750000       0.43750000 </v>
   <v>      -0.43750000       0.43750000       0.43750000 </v>
  </varray>
  <varray name="weights" >
   <v>       0.00390625 </v>
   <v>       0.01171875 </v>
   <v>       0.01171875 </v>
   <v>       0.01171875 </v>
   <v>       0.01171875 </v>
   <v>       0.01171875 </v>
   <v>       0.01171875 </v>
   <v>       0.01171875 </v>
   <v>       0.01171875 </v>
   <v>       0.02343750 </v>
   <v>       0.02343750 </v>
   <v>       0.02343750 </v>
   <v>       0.02343750 </v>
   <v>       0.02343750 </v>
   <v>       0.02343750 </v>
   <v>       0.01171875 </v>
   <v>       0.02343750 </v>
   <v>       0.02343750 </v>
   <v>       0.02343750 </v>
   <v>       0.02343750 </v>
   <v>       0.02343750 </v>
   <v>       0.01171875 </v>
   <v>       0.02343750 </v>
   <v>       0.02343750 </v>
   <v>       0.02343750 </v>
   <v>       0.02343750 </v>
   <v>       0.01171875 </v>
   <v>       0.02343750 </v>
   <v>       0.02343750 </v>
   <v>       0.01171875 </v>
   <v>       0.02343750 </v>
   <v>       0.01171875 </v>
   <v>       0.00390625 </v>
   <v>       0.01171875 </v>
   <v>       0.01171875 </v>
   <v>       0.01171875 </v>
   <v>       0.01171875 </v>
   <v>       0.01171875 </v>
   <v>       0.01171875 </v>
   <v>       0.02343750 </v>
   <v>       0.02343750 </v>
   <v>       0.02343750 </v>
   <v>       0.02343750 </v>
   <v>       0.01171875 </v>
   <v>       0.02343750 </v>
   <v>       0.02343750 </v>
   <v>       0.02343750 </v>
   <v>       0.01171875 </v>
   <v>       0.02343750 </v>
   <v>       0.01171875 </v>
   <v>       0.00390625 </v>
   <v>       0.01171875 </v>
   <v>       0.01171875 </v>
   <v>       0.01171875 </v>
   <v>       0.01171875 </v>
   <v>       0.02343750 </v>
   <v>       0.02343750 </v>
   <v>       0.01171875 </v>
   <v>       0.00390625 </v>
   <v>       0.01171875 </v>
  </varray>
 </kpoints>
 <parameters>
  <separator name="general" >
   <i type="string" name="SYSTEM">unknown system</i>
   <i type="logical" name="LCOMPAT"> F  </i>
  </separator>
  <separator name="electronic" >
   <i type="string" name="PREC">normal</i>
   <i name="ENMAX">    350.00000000</i>
   <i name="ENAUG">    322.06900000</i>
   <i name="EDIFF">      0.00040000</i>
   <i type="int" name="IALGO">    38</i>
   <i type="int" name="IWAVPR">    11</i>
   <i type="int" name="NBANDS">     8</i>
   <i name="NELECT">      8.00000000</i>
   <i type="int" name="TURBO">     0</i>
   <i type="int" name="IRESTART">     0</i>
   <i type="int" name="NREBOOT">     0</i>
   <i type="int" name="NMIN">     0</i>
   <i name="EREF">      0.00000000</i>
   <separator name="electronic smearing" >
    <i type="int" name="ISMEAR">     0</i>
    <i name="SIGMA">      0.20000000</i>
    <i name="KSPACING">      0.50000000</i>
    <i type="logical" name="KGAMMA"> T  </i>
   </separator>
   <separator name="electronic projectors" >
    <i type="logical" name="LREAL"> F  </i>
    <v name="ROPT">      0.00000000</v>
    <i type="int" name="LMAXPAW">  -100</i>
    <i type="int" name="LMAXMIX">     2</i>
    <i type="logical" name="NLSPLINE"> F  </i>
   </separator>
   <separator name="electronic startup" >
    <i type="int" name="ISTART">     0</i>
    <i type="int" name="ICHARG">     2</i>
    <i type="int" name="INIWAV">     1</i>
   </separator>
   <separator name="electronic spin" >
    <i type="int" name="ISPIN">     1</i>
    <i type="logical" name="LNONCOLLINEAR"> F  </i>
    <v name="MAGMOM">      1.00000000      1.00000000</v>
    <i name="NUPDOWN">     -1.00000000</i>
    <i type="logical" name="LSORBIT"> F  </i>
    <v name="SAXIS">      0.00000000      0.00000000      1.00000000</v>
    <i type="logical" name="LSPIRAL"> F  </i>
    <v name="QSPIRAL">      0.00000000      0.00000000      0.00000000</v>
    <i type="logical" name="LZEROZ"> F  </i>
   </separator>
   <separator name="electronic exchange-correlation" >
    <i type="logical" name="LASPH"> F  </i>
    <i type="logical" name="LMETAGGA"> F  </i>
   </separator>
   <separator name="electronic convergence" >
    <i type="int" name="NELM">    60</i>
    <i type="int" name="NELMDL">    -5</i>
    <i type="int" name="NELMIN">     2</i>
    <i name="ENINI">    350.00000000</i>
    <separator name="electronic convergence detail" >
     <i type="logical" name="LDIAG"> T  </i>
     <i type="logical" name="LSUBROT"> F  </i>
     <i name="WEIMIN">      0.00100000</i>
     <i name="EBREAK">      0.00001250</i>
     <i name="DEPER">      0.30000000</i>
     <i type="int" name="NRMM">     4</i>
     <i name="TIME">      0.40000000</i>
    </separator>
   </separator>
   <separator name="electronic mixer" >
    <i name="AMIX">      0.40000000</i>
    <i name="BMIX">      1.00000000</i>
    <i name="AMIN">      0.10000000</i>
    <i name="AMIX_MAG">      1.60000000</i>
    <i name="BMIX_MAG">      1.00000000</i>
    <separator name="electronic mixer details" >
     <i type="int" name="IMIX">     4</i>
     <i type="logical" name="MIXFIRST"> F  </i>
     <i type="int" name="MAXMIX">   -45</i>
     <i name="WC">    100.00000000</i>
     <i type="int" name="INIMIX">     1</i>
     <i type="int" name="MIXPRE">     1</i>
     <i type="int" name="MREMOVE">     5</i>
    </separator>
   </separator>
   <separator name="electronic dipolcorrection" >
    <i type="logical" name="LDIPOL"> F  </i>
    <i type="logical" name="LMONO"> F  </i>
    <i type="int" name="IDIPOL">     0</i>
    <i name="EPSILON">      1.00000000</i>
    <v name="DIPOL">   -100.00000000   -100.00000000   -100.00000000</v>
    <i name="EFIELD">      0.00000000</i>
   </separator>
  </separator>
  <separator name="grids" >
   <i type="int" name="NGX">    18</i>
   <i type="int" name="NGY">    18</i>
   <i type="int" name="NGZ">    18</i>
   <i type="int" name="NGXF">    36</i>
   <i type="int" name="NGYF">    36</i>
   <i type="int" name="NGZF">    36</i>
   <i type="logical" name="ADDGRID"> F  </i>
  </separator>
  <separator name="ionic" >
   <i type="int" name="NSW">    15</i>
   <i type="int" name="IBRION">     2</i>
   <i type="int" name="MDALGO">     0</i>
   <i type="int" name="ISIF">     2</i>
   <i name="PSTRESS">      0.00000000</i>
   <i name="EDIFFG">     -0.01000000</i>
   <i type="int" name="NFREE">     1</i>
   <i name="POTIM">      0.50000000</i>
   <i name="SMASS">     -3.00000000</i>
   <i name="SCALEE">      1.00000000</i>
  </separator>
  <separator name="ionic md" >
   <i name="TEBEG">      0.00010000</i>
   <i name="TEEND">      0.00010000</i>
   <i type="int" name="NBLOCK">     1</i>
   <i type="int" name="KBLOCK">    15</i>
   <i type="int" name="NPACO">   256</i>
   <i name="APACO">     16.00000000</i>
  </separator>
  <separator name="symmetry" >
   <i type="int" name="ISYM">     2</i>
   <i name="SYMPREC">      0.00001000</i>
  </separator>
  <separator name="dos" >
   <i type="int" name="LORBIT">     0</i>
   <v name="RWIGS">     -1.00000000</v>
   <i type="int" name="NEDOS">   301</i>
   <i name="EMIN">     10.00000000</i>
   <i name="EMAX">    -10.00000000</i>
   <i name="EFERMI">      0.00000000</i>
  </separator>
  <separator name="writing" >
   <i type="int" name="NWRITE">     2</i>
   <i type="logical" name="LWAVE"> T  </i>
   <i type="logical" name="LDOWNSAMPLE"> F  </i>
   <i type="logical" name="LCHARG"> T  </i>
   <i type="logical" name="LPARD"> F  </i>
   <i type="logical" name="LVTOT"> F  </i>
   <i type="logical" name="LVHAR"> F  </i>
   <i type="logical" name="LELF"> F  </i>
   <i type="logical" name="LOPTICS"> F  </i>
   <v name="STM">      0.00000000      0.00000000      0.00000000      0.00000000      0.00000000      0.00000000      0.00000000</v>
  </separator>
  <separator name="performance" >
   <i type="int" name="NPAR">     8</i>
   <i type="int" name="NSIM">     4</i>
   <i type="int" name="NBLK">    -1</i>
   <i type="logical" name="LPLANE"> T  </i>
   <i type="logical" name="LSCALAPACK"> T  </i>
   <i type="logical" name="LSCAAWARE"> F  </i>
   <i type="logical" name="LSCALU"> F  </i>
   <i type="logical" name="LASYNC"> F  </i>
   <i type="logical" name="LORBITALREAL"> F  </i>
  </separator>
  <separator name="miscellaneous" >
   <i type="int" name="IDIOT">     3</i>
   <i type="int" name="ISPECIAL">     0</i>
   <i type="logical" name="LMUSIC"> F  </i>
   <v name="POMASS">     28.08500000</v>
   <v name="DARWINR">      0.00000000</v>
   <v name="DARWINV">      1.00000000</v>
   <i type="logical" name="LCORR"> T  </i>
  </separator>
  <i type="logical" name="GGA_COMPAT"> T  </i>
  <i type="logical" name="LBERRY"> F  </i>
  <i type="int" name="ICORELEVEL">     0</i>
  <i type="logical" name="LDAU"> F  </i>
  <i type="int" name="I_CONSTRAINED_M">     0</i>
  <separator name="electronic exchange-correlation" >
   <i type="string" name="GGA">--</i>
   <i type="int" name="VOSKOWN">     0</i>
   <i type="logical" name="LHFCALC"> F  </i>
   <i type="string" name="PRECFOCK"></i>
   <i type="logical" name="LSYMGRAD"> F  </i>
   <i type="logical" name="LHFONE"> F  </i>
   <i type="logical" name="LRHFCALC"> F  </i>
   <i type="logical" name="LTHOMAS"> F  </i>
   <i type="logical" name="LMODELHF"> F  </i>
   <i name="ENCUT4O">     -1.00000000</i>
   <i type="int" name="EXXOEP">     0</i>
   <i type="int" name="FOURORBIT">     0</i>
   <i name="AEXX">      0.00000000</i>
   <i name="HFALPHA">      0.00000000</i>
   <i name="MCALPHA">      0.00000000</i>
   <i name="ALDAX">      1.00000000</i>
   <i name="AGGAX">      1.00000000</i>
   <i name="ALDAC">      1.00000000</i>
   <i name="AGGAC">      1.00000000</i>
   <i type="int" name="NKREDX">     1</i>
   <i type="int" name="NKREDY">     1</i>
   <i type="int" name="NKREDZ">     1</i>
   <i type="logical" name="SHIFTRED"> F  </i>
   <i type="logical" name="ODDONLY"> F  </i>
   <i type="logical" name="EVENONLY"> F  </i>
   <i type="int" name="LMAXFOCK">     0</i>
   <i type="int" name="NMAXFOCKAE">     0</i>
   <i type="logical" name="LFOCKAEDFT"> F  </i>
   <i name="HFSCREEN">      0.00000000</i>
   <i name="HFSCREENC">      0.00000000</i>
   <i type="int" name="NBANDSGWLOW">     0</i>
  </separator>
  <separator name="vdW DFT" >
   <i type="logical" name="LUSE_VDW"> F  </i>
   <i name="Zab_VDW">     -0.84910000</i>
   <i name="PARAM1">      0.12340000</i>
   <i name="PARAM2">      1.00000000</i>
   <i name="PARAM3">      0.00000000</i>
  </separator>
  <separator name="model GW" >
   <i type="int" name="MODEL_GW">     0</i>
   <i name="MODEL_EPS0">     12.67575096</i>
   <i name="MODEL_ALPHA">      1.00000000</i>
  </separator>
  <separator name="linear response parameters" >
   <i type="logical" name="LEPSILON"> F  </i>
   <i type="logical" name="LRPA"> F  </i>
   <i type="logical" name="LNABLA"> F  </i>
   <i type="logical" name="LVEL"> F  </i>
   <i type="int" name="KINTER">     0</i>
   <i name="CSHIFT">      0.10000000</i>
   <i name="OMEGAMAX">     -1.00000000</i>
   <i name="DEG_THRESHOLD">      0.00200000</i>
   <i name="RTIME">     -0.10000000</i>
   <i name="WPLASMAI">      0.00000000</i>
   <v name="DFIELD">      0.00000000      0.00000000      0.00000000</v>
   <v name="WPLASMA">      0.00000000      0.00000000      0.00000000      0.00000000      0.00000000      0.00000000      0.00000000      0.00000000      0.00000000</v>
  </separator>
  <separator name="orbital magnetization" >
   <i type="logical" name="NUCIND"> F  </i>
   <v name="MAGPOS">      0.00000000      0.00000000      0.00000000</v>
   <i type="logical" name="LNICSALL"> T  </i>
   <i type="logical" name="ORBITALMAG"> F  </i>
   <i type="logical" name="LMAGBLOCH"> F  </i>
   <i type="logical" name="LCHIMAG"> F  </i>
   <i type="logical" name="LGAUGE"> T  </i>
   <i type="int" name="MAGATOM">     0</i>
   <v name="MAGDIPOL">      0.00000000      0.00000000      0.00000000</v>
   <v name="AVECCONST">      0.00000000      0.00000000      0.00000000</v>
  </separator>
  <separator name="response functions" >
   <i type="logical" name="LADDER"> F  </i>
   <i type="logical" name="LRPAFORCE"> F  </i>
   <i type="logical" name="LFXC"> F  </i>
   <i type="logical" name="LHARTREE"> T  </i>
   <i type="int" name="IBSE">     0</i>
   <v type="int" name="KPOINT">    -1     0     0     0</v>
   <i type="logical" name="LTCTE"> F  </i>
   <i type="logical" name="LTETE"> F  </i>
   <i type="logical" name="LTRIPLET"> F  </i>
   <i type="logical" name="LFXCEPS"> F  </i>
   <i type="logical" name="LFXHEG"> F  </i>
   <i type="int" name="NATURALO">     2</i>
   <i type="logical" name="L2ORDER"> F  </i>
   <i type="logical" name="LMP2LT"> F  </i>
   <i type="logical" name="LUSEW"> F  </i>
   <i name="ENCUTGW">     -2.00000000</i>
   <i name="ENCUTGWSOFT">     -2.00000000</i>
   <i name="ENCUTLF">     -1.00000000</i>
   <i type="int" name="LMAXMP2">    -1</i>
   <i name="SCISSOR">      0.00000000</i>
   <i type="int" name="NOMEGA">     0</i>
   <i type="int" name="NOMEGAR">     0</i>
   <i type="int" name="NBANDSGW">    -1</i>
   <i type="int" name="NBANDSO">    -1</i>
   <i type="int" name="NBANDSV">    -1</i>
   <i type="int" name="NELM">     1</i>
   <i type="int" name="NELMHF">     1</i>
   <i type="int" name="DIM">     3</i>
   <i type="int" name="ANTIRES">     0</i>
   <i name="OMEGAMAX">    -30.00000000</i>
   <i name="OMEGAMIN">    -30.00000000</i>
   <i name="OMEGATL">   -200.00000000</i>
   <i type="int" name="OMEGAGRID">   140</i>
   <i name="CSHIFT">     -0.10000000</i>
   <i type="logical" name="SELFENERGY"> F  </i>
   <i type="logical" name="LSPECTRAL"> F  </i>
   <i type="logical" name="LSPECTRALGW"> F  </i>
   <i type="logical" name="LSINGLES"> F  </i>
   <i type="logical" name="LFERMIGW"> F  </i>
   <i type="logical" name="ODDONLYGW"> F  </i>
   <i type="logical" name="EVENONLYGW"> F  </i>
   <i type="int" name="NKREDLFX">     1</i>
   <i type="int" name="NKREDLFY">     1</i>
   <i type="int" name="NKREDLFZ">     1</i>
   <i type="int" name="MAXMEM">  2800</i>
   <i type="int" name="TELESCOPE">     0</i>
   <i type="int" name="TAUPAR">     1</i>
   <i type="int" name="OMEGAPAR">    -1</i>
   <i name="LAMBDA">      1.00000000</i>
  </separator>
  <separator name="External order field" >
   <i name="OFIELD_KAPPA">      0.00000000</i>
   <v name="OFIELD_K">      0.00000000      0.00000000      0.00000000</v>
   <i name="OFIELD_Q6_NEAR">      0.00000000</i>
   <i name="OFIELD_Q6_FAR">      0.00000000</i>
   <i name="OFIELD_A">      0.00000000</i>
  </separator>
 </parameters>
 <atominfo>
  <atoms>       2 </atoms>
  <types>       1 </types>
  <array name="atoms" >
   <dimension dim="1">ion</dimension>
   <field type="string">element</field>
   <field type="int">atomtype</field>
   <set>
    <rc><c>Si</c><c>   1</c></rc>
    <rc><c>Si</c><c>   1</c></rc>
   </set>
  </array>
  <array name="atomtypes" >
   <dimension dim="1">type</dimension>
   <field type="int">atomspertype</field>
   <field type="string">element</field>
   <field>mass</field>
   <field>valence</field>
   <field type="string">pseudopotential</field>
   <set>
    <rc><c>   2</c><c>Si</c><c>     28.08500000</c><c>      4.00000000</c><c> PAW_PBE Si 05Jan2001                   </c></rc>
   </set>
  </array>
 </atominfo>
 <structure name="initialpos" >
  <crystal>
   <varray name="basis" >
    <v>       0.00000000       2.76444200       2.76444200 </v>
    <v>       2.76444200       0.00000000       2.76444200 </v>
    <v>       2.76444200       2.76444200       0.00000000 </v>
   </varray>
   <i name="volume">     42.25250320 </i>
   <varray name="rec_basis" >
    <v>      -0.18086833       0.18086833       0.18086833 </v>
    <v>       0.18086833      -0.18086833       0.18086833 </v>
    <v>       0.18086833       0.18086833      -0.18086833 </v>
   </varray>
  </crystal>
  <varray name="positions" >
   <v>       0.50000000       0.50000000       0.50000000 </v>
   <v>       0.75000000       0.75000000       0.75000000 </v>
  </varray>
 </structure>
 <calculation>
  <scstep>
   <time name="dav">    0.80    0.80</time>
   <time name="total">    0.85    0.86</time>
   <energy>
    <i name="alphaZ">      3.18684820 </i>
    <i name="ewald">   -224.47567002 </i>
    <i name="hartreedc">    -11.82861561 </i>
    <i name="XCdc">    -18.81125109 </i>
    <i name="pawpsdc">     65.95520812 </i>
    <i name="pawaedc">    -30.76852678 </i>
    <i name="eentropy">     -0.01134104 </i>
    <i name="bandstr">     15.09913031 </i>
    <i name="atom">    206.13125414 </i>
    <i name="e_fr_energy">      4.47703622 </i>
    <i name="e_wo_entrp">      4.48837726 </i>
    <i name="e_0_energy">      4.48270674 </i>
   </energy>
  </scstep>
  <scstep>
   <time name="dav">    1.26    1.27</time>
   <time name="total">    1.26    1.27</time>
   <energy>
    <i name="e_fr_energy">    -10.81125384 </i>
    <i name="e_wo_entrp">    -10.81125266 </i>
    <i name="e_0_energy">    -10.81125325 </i>
   </energy>
  </scstep>
  <scstep>
   <time name="dav">    0.93    0.93</time>
   <time name="total">    0.93    0.94</time>
   <energy>
    <i name="e_fr_energy">    -10.98541776 </i>
    <i name="e_wo_entrp">    -10.98541717 </i>
    <i name="e_0_energy">    -10.98541746 </i>
   </energy>
  </scstep>
  <scstep>
   <time name="dav">    1.33    1.40</time>
   <time name="total">    1.34    1.40</time>
   <energy>
    <i name="e_fr_energy">    -10.98627503 </i>
    <i name="e_wo_entrp">    -10.98627444 </i>
    <i name="e_0_energy">    -10.98627473 </i>
   </energy>
  </scstep>
  <scstep>
   <time name="dav">    0.93    0.94</time>
   <time name="total">    1.00    1.01</time>
   <energy>
    <i name="e_fr_energy">    -10.98627527 </i>
    <i name="e_wo_entrp">    -10.98627468 </i>
    <i name="e_0_energy">    -10.98627497 </i>
   </energy>
  </scstep>
  <scstep>
   <time name="dav">    0.94    0.94</time>
   <time name="total">    1.04    1.05</time>
   <energy>
    <i name="e_fr_energy">    -10.88340650 </i>
    <i name="e_wo_entrp">    -10.88340314 </i>
    <i name="e_0_energy">    -10.88340482 </i>
   </energy>
  </scstep>
  <scstep>
   <time name="dav">    0.97    0.97</time>
   <time name="total">    1.07    1.07</time>
   <energy>
    <i name="e_fr_energy">    -10.83451951 </i>
    <i name="e_wo_entrp">    -10.83449478 </i>
    <i name="e_0_energy">    -10.83450715 </i>
   </energy>
  </scstep>
  <scstep>
   <time name="dav">    0.93    0.93</time>
   <time name="total">    1.03    1.04</time>
   <energy>
    <i name="e_fr_energy">    -10.83585262 </i>
    <i name="e_wo_entrp">    -10.83583347 </i>
    <i name="e_0_energy">    -10.83584304 </i>
   </energy>
  </scstep>
  <scstep>
   <time name="dav">    0.67    0.67</time>
   <time name="total">    0.71    0.71</time>
   <energy>
    <i name="alphaZ">      3.18684820 </i>
    <i name="ewald">   -224.47567002 </i>
    <i name="hartreedc">    -15.55541937 </i>
    <i name="XCdc">    -18.20695087 </i>
    <i name="pawpsdc">     72.68641876 </i>
    <i name="pawaedc">    -37.67810128 </i>
    <i name="eentropy">     -0.00001890 </i>
    <i name="bandstr">      3.07568134 </i>
    <i name="atom">    206.13125414 </i>
    <i name="e_fr_energy">    -10.83595799 </i>
    <i name="e_wo_entrp">    -10.83593909 </i>
    <i name="e_0_energy">    -10.83594854 </i>
   </energy>
  </scstep>
  <structure>
   <crystal>
    <varray name="basis" >
     <v>       0.00000000       2.76444200       2.76444200 </v>
     <v>       2.76444200       0.00000000       2.76444200 </v>
     <v>       2.76444200       2.76444200       0.00000000 </v>
    </varray>
    <i name="volume">     42.25250320 </i>
    <varray name="rec_basis" >
     <v>      -0.18086833       0.18086833       0.18086833 </v>
     <v>       0.18086833      -0.18086833       0.18086833 </v>
     <v>       0.18086833       0.18086833      -0.18086833 </v>
    </varray>
   </crystal>
   <varray name="positions" >
    <v>       0.50000000       0.50000000       0.50000000 </v>
    <v>       0.75000000       0.75000000       0.75000000 </v>
   </varray>
  </structure>
  <varray name="forces" >
   <v>       0.00000000       0.00000000       0.00000000 </v>
   <v>      -0.00000000      -0.00000000      -0.00000000 </v>
  </varray>
  <varray name="stress" >
   <v>     -27.36871596       0.00000000      -0.00000000 </v>
   <v>       0.00000000     -27.36871596       0.00000000 </v>
   <v>      -0.00000000      -0.00000000     -27.36871596 </v>
  </varray>
  <energy>
   <i name="e_fr_energy">    -10.83595799 </i>
   <i name="e_wo_entrp">    -10.83594854 </i>
   <i name="e_0_energy">     -0.00001890 </i>
  </energy>
  <time name="totalsc">   10.89   11.60</time>
  <eigenvalues>
   <array>
    <dimension dim="1">band</dimension>
    <dimension dim="2">kpoint</dimension>
    <dimension dim="3">spin</dimension>
    <field>eigene</field>
    <field>occ</field>
    <set>
     <set comment="spin 1">
      <set comment="kpoint 1">
       <r>   -6.2539    1.0000 </r>
       <r>    4.7581    1.0000 </r>
       <r>    5.2149    0.9989 </r>
       <r>    5.2149    0.9989 </r>
       <r>    7.8194    0.0000 </r>
       <r>    7.9551    0.0000 </r>
       <r>    7.9551    0.0000 </r>
       <r>    8.5297    0.0000 </r>
      </set>
      <set comment="kpoint 2">
       <r>   -5.9951    1.0000 </r>
       <r>    3.2697    1.0000 </r>
       <r>    4.4411    1.0000 </r>
       <r>    5.0982    0.9999 </r>
       <r>    7.8342    0.0000 </r>
       <r>    8.1936    0.0000 </r>
       <r>    8.4557    0.0000 </r>
       <r>   10.0559    0.0000 </r>
      </set>
      <set comment="kpoint 3">
       <r>   -5.3717    1.0000 </r>
       <r>    1.1115    1.0000 </r>
       <r>    3.9630    1.0000 </r>
       <r>    4.6513    1.0000 </r>
       <r>    7.3813    0.0000 </r>
       <r>    8.6850    0.0000 </r>
       <r>    8.9601    0.0000 </r>
       <r>   11.6703    0.0000 </r>
      </set>
      <set comment="kpoint 4">
       <r>   -4.5071    1.0000 </r>
       <r>   -0.7081    1.0000 </r>
       <r>    3.7481    1.0000 </r>
       <r>    4.2579    1.0000 </r>
       <r>    7.0687    0.0000 </r>
       <r>    8.7698    0.0000 </r>
       <r>    8.7835    0.0000 </r>
       <r>   12.9760    0.0000 </r>
      </set>
      <set comment="kpoint 5">
       <r>   -4.0831    1.0000 </r>
       <r>   -1.3768    1.0000 </r>
       <r>    3.7925    1.0000 </r>
       <r>    4.0486    1.0000 </r>
       <r>    6.9905    0.0000 </r>
       <r>    8.5879    0.0000 </r>
       <r>    8.8491    0.0000 </r>
       <r>   13.0804    0.0000 </r>
      </set>
      <set comment="kpoint 6">
       <r>   -4.8021    1.0000 </r>
       <r>   -0.1716    1.0000 </r>
       <r>    4.0689    1.0000 </r>
       <r>    4.0716    1.0000 </r>
       <r>    7.1588    0.0000 </r>
       <r>    8.5808    0.0000 </r>
       <r>    9.0866    0.0000 </r>
       <r>   12.1174    0.0000 </r>
      </set>
      <set comment="kpoint 7">
       <r>   -5.6159    1.0000 </r>
       <r>    1.8184    1.0000 </r>
       <r>    4.3417    1.0000 </r>
       <r>    4.5199    1.0000 </r>
       <r>    7.5242    0.0000 </r>
       <r>    8.4062    0.0000 </r>
       <r>    9.1149    0.0000 </r>
       <r>   10.9073    0.0000 </r>
      </set>
      <set comment="kpoint 8">
       <r>   -6.1238    1.0000 </r>
       <r>    4.0057    1.0000 </r>
       <r>    4.8078    1.0000 </r>
       <r>    4.9508    1.0000 </r>
       <r>    7.6741    0.0000 </r>
       <r>    8.1587    0.0000 </r>
       <r>    8.5113    0.0000 </r>
       <r>    9.3052    0.0000 </r>
      </set>
      <set comment="kpoint 9">
       <r>   -5.8648    1.0000 </r>
       <r>    3.1109    1.0000 </r>
       <r>    4.2719    1.0000 </r>
       <r>    4.3410    1.0000 </r>
       <r>    7.2710    0.0000 </r>
       <r>    8.8784    0.0000 </r>
       <r>    9.3405    0.0000 </r>
       <r>    9.7940    0.0000 </r>
      </set>
      <set comment="kpoint 10">
       <r>   -5.3590    1.0000 </r>
       <r>    1.6475    1.0000 </r>
       <r>    3.3349    1.0000 </r>
       <r>    4.0926    1.0000 </r>
       <r>    7.4327    0.0000 </r>
       <r>    8.9824    0.0000 </r>
       <r>    9.7422    0.0000 </r>
       <r>   10.1168    0.0000 </r>
      </set>
      <set comment="kpoint 11">
       <r>   -4.5469    1.0000 </r>
       <r>   -0.1386    1.0000 </r>
       <r>    2.8419    1.0000 </r>
       <r>    3.7016    1.0000 </r>
       <r>    7.6080    0.0000 </r>
       <r>    8.9777    0.0000 </r>
       <r>   10.1450    0.0000 </r>
       <r>   10.4548    0.0000 </r>
      </set>
      <set comment="kpoint 12">
       <r>   -3.8230    1.0000 </r>
       <r>   -1.2934    1.0000 </r>
       <r>    2.5582    1.0000 </r>
       <r>    3.6135    1.0000 </r>
       <r>    7.6574    0.0000 </r>
       <r>    8.7180    0.0000 </r>
       <r>   10.0114    0.0000 </r>
       <r>   12.3949    0.0000 </r>
      </set>
      <set comment="kpoint 13">
       <r>   -4.2570    1.0000 </r>
       <r>   -0.6360    1.0000 </r>
       <r>    2.4939    1.0000 </r>
       <r>    3.8852    1.0000 </r>
       <r>    7.9024    0.0000 </r>
       <r>    8.6556    0.0000 </r>
       <r>    9.9511    0.0000 </r>
       <r>   11.6734    0.0000 </r>
      </set>
      <set comment="kpoint 14">
       <r>   -5.1205    1.0000 </r>
       <r>    1.0218    1.0000 </r>
       <r>    2.8002    1.0000 </r>
       <r>    4.3712    1.0000 </r>
       <r>    8.2154    0.0000 </r>
       <r>    8.5413    0.0000 </r>
       <r>    9.8232    0.0000 </r>
       <r>   10.3216    0.0000 </r>
      </set>
      <set comment="kpoint 15">
       <r>   -5.7392    1.0000 </r>
       <r>    2.4645    1.0000 </r>
       <r>    3.8852    1.0000 </r>
       <r>    4.7290    1.0000 </r>
       <r>    7.8025    0.0000 </r>
       <r>    8.3779    0.0000 </r>
       <r>    9.1602    0.0000 </r>
       <r>   10.3325    0.0000 </r>
      </set>
      <set comment="kpoint 16">
       <r>   -4.9721    1.0000 </r>
       <r>    1.1336    1.0000 </r>
       <r>    3.1991    1.0000 </r>
       <r>    3.3163    1.0000 </r>
       <r>    6.4911    0.0000 </r>
       <r>    8.1233    0.0000 </r>
       <r>   11.1308    0.0000 </r>
       <r>   11.2869    0.0000 </r>
      </set>
      <set comment="kpoint 17">
       <r>   -4.2479    1.0000 </r>
       <r>   -0.0655    1.0000 </r>
       <r>    2.4445    1.0000 </r>
       <r>    2.9840    1.0000 </r>
       <r>    6.7990    0.0000 </r>
       <r>    7.9663    0.0000 </r>
       <r>   11.0970    0.0000 </r>
       <r>   12.2479    0.0000 </r>
      </set>
      <set comment="kpoint 18">
       <r>   -3.3891    1.0000 </r>
       <r>   -1.2128    1.0000 </r>
       <r>    1.6368    1.0000 </r>
       <r>    2.9531    1.0000 </r>
       <r>    7.0325    0.0000 </r>
       <r>    9.5785    0.0000 </r>
       <r>   10.6836    0.0000 </r>
       <r>   12.1608    0.0000 </r>
      </set>
      <set comment="kpoint 19">
       <r>   -3.4598    1.0000 </r>
       <r>   -1.1207    1.0000 </r>
       <r>    1.3017    1.0000 </r>
       <r>    3.2829    1.0000 </r>
       <r>    7.4151    0.0000 </r>
       <r>   10.2692    0.0000 </r>
       <r>   11.5081    0.0000 </r>
       <r>   11.8734    0.0000 </r>
      </set>
      <set comment="kpoint 20">
       <r>   -4.3182    1.0000 </r>
       <r>   -0.1906    1.0000 </r>
       <r>    1.8762    1.0000 </r>
       <r>    3.8436    1.0000 </r>
       <r>    7.9994    0.0000 </r>
       <r>    9.1936    0.0000 </r>
       <r>   10.5598    0.0000 </r>
       <r>   10.8704    0.0000 </r>
      </set>
      <set comment="kpoint 21">
       <r>   -5.0121    1.0000 </r>
       <r>    0.4545    1.0000 </r>
       <r>    3.4347    1.0000 </r>
       <r>    4.2745    1.0000 </r>
       <r>    7.6616    0.0000 </r>
       <r>    8.5834    0.0000 </r>
       <r>    9.4222    0.0000 </r>
       <r>   11.0779    0.0000 </r>
      </set>
      <set comment="kpoint 22">
       <r>   -3.6164    1.0000 </r>
       <r>   -0.9039    1.0000 </r>
       <r>    2.5372    1.0000 </r>
       <r>    2.7424    1.0000 </r>
       <r>    6.1189    0.0004 </r>
       <r>    6.8237    0.0000 </r>
       <r>   13.3575    0.0000 </r>
       <r>   13.3880    0.0000 </r>
      </set>
      <set comment="kpoint 23">
       <r>   -2.7410    1.0000 </r>
       <r>   -1.8611    1.0000 </r>
       <r>    2.0072    1.0000 </r>
       <r>    2.5116    1.0000 </r>
       <r>    6.5419    0.0000 </r>
       <r>    7.2474    0.0000 </r>
       <r>   13.1298    0.0000 </r>
       <r>   14.0816    0.0000 </r>
      </set>
      <set comment="kpoint 24">
       <r>   -2.8437    1.0000 </r>
       <r>   -1.6948    1.0000 </r>
       <r>    1.3123    1.0000 </r>
       <r>    2.8146    1.0000 </r>
       <r>    6.8921    0.0000 </r>
       <r>    9.4224    0.0000 </r>
       <r>   11.6495    0.0000 </r>
       <r>   12.7448    0.0000 </r>
      </set>
      <set comment="kpoint 25">
       <r>   -3.5755    1.0000 </r>
       <r>   -1.2664    1.0000 </r>
       <r>    1.8185    1.0000 </r>
       <r>    3.3919    1.0000 </r>
       <r>    7.5243    0.0000 </r>
       <r>    9.4327    0.0000 </r>
       <r>   10.9258    0.0000 </r>
       <r>   12.1534    0.0000 </r>
      </set>
      <set comment="kpoint 26">
       <r>   -4.1605    1.0000 </r>
       <r>   -1.0983    1.0000 </r>
       <r>    3.2581    1.0000 </r>
       <r>    3.9534    1.0000 </r>
       <r>    7.4516    0.0000 </r>
       <r>    8.5226    0.0000 </r>
       <r>    9.2612    0.0000 </r>
       <r>   12.7164    0.0000 </r>
      </set>
      <set comment="kpoint 27">
       <r>   -2.7883    1.0000 </r>
       <r>   -1.8764    1.0000 </r>
       <r>    2.4043    1.0000 </r>
       <r>    2.6251    1.0000 </r>
       <r>    6.1222    0.0004 </r>
       <r>    6.4726    0.0000 </r>
       <r>   14.4036    0.0000 </r>
       <r>   14.4542    0.0000 </r>
      </set>
      <set comment="kpoint 28">
       <r>   -3.5355    1.0000 </r>
       <r>   -0.9662    1.0000 </r>
       <r>    2.1569    1.0000 </r>
       <r>    2.6660    1.0000 </r>
       <r>    6.6218    0.0000 </r>
       <r>    7.4958    0.0000 </r>
       <r>   12.0878    0.0000 </r>
       <r>   13.3678    0.0000 </r>
      </set>
      <set comment="kpoint 29">
       <r>   -3.9939    1.0000 </r>
       <r>   -0.6840    1.0000 </r>
       <r>    2.1992    1.0000 </r>
       <r>    3.2418    1.0000 </r>
       <r>    7.2944    0.0000 </r>
       <r>    9.7543    0.0000 </r>
       <r>    9.9181    0.0000 </r>
       <r>   11.1366    0.0000 </r>
      </set>
      <set comment="kpoint 30">
       <r>   -4.3482    1.0000 </r>
       <r>    0.1083    1.0000 </r>
       <r>    2.8026    1.0000 </r>
       <r>    2.9747    1.0000 </r>
       <r>    6.2403    0.0000 </r>
       <r>    7.3869    0.0000 </r>
       <r>   12.2277    0.0000 </r>
       <r>   12.3244    0.0000 </r>
      </set>
      <set comment="kpoint 31">
       <r>   -4.8594    1.0000 </r>
       <r>    0.8086    1.0000 </r>
       <r>    2.8459    1.0000 </r>
       <r>    3.4710    1.0000 </r>
       <r>    7.0758    0.0000 </r>
       <r>    8.6119    0.0000 </r>
       <r>   10.1808    0.0000 </r>
       <r>   11.1527    0.0000 </r>
      </set>
      <set comment="kpoint 32">
       <r>   -5.4796    1.0000 </r>
       <r>    2.1437    1.0000 </r>
       <r>    3.7207    1.0000 </r>
       <r>    3.7563    1.0000 </r>
       <r>    6.8488    0.0000 </r>
       <r>    8.9153    0.0000 </r>
       <r>   10.1299    0.0000 </r>
       <r>   10.2856    0.0000 </r>
      </set>
      <set comment="kpoint 33">
       <r>   -5.8681    1.0000 </r>
       <r>    2.5715    1.0000 </r>
       <r>    4.7894    1.0000 </r>
       <r>    4.7894    1.0000 </r>
       <r>    7.3821    0.0000 </r>
       <r>    8.5541    0.0000 </r>
       <r>    8.5541    0.0000 </r>
       <r>   10.6791    0.0000 </r>
      </set>
      <set comment="kpoint 34">
       <r>   -5.4897    1.0000 </r>
       <r>    1.7366    1.0000 </r>
       <r>    3.3334    1.0000 </r>
       <r>    4.8022    1.0000 </r>
       <r>    8.0346    0.0000 </r>
       <r>    8.6769    0.0000 </r>
       <r>    8.9500    0.0000 </r>
       <r>   10.8513    0.0000 </r>
      </set>
      <set comment="kpoint 35">
       <r>   -4.7701    1.0000 </r>
       <r>    0.3985    1.0000 </r>
       <r>    2.2914    1.0000 </r>
       <r>    4.3164    1.0000 </r>
       <r>    7.9345    0.0000 </r>
       <r>    9.4147    0.0000 </r>
       <r>    9.5976    0.0000 </r>
       <r>   11.1372    0.0000 </r>
      </set>
      <set comment="kpoint 36">
       <r>   -3.9145    1.0000 </r>
       <r>   -1.0270    1.0000 </r>
       <r>    2.1307    1.0000 </r>
       <r>    3.8059    1.0000 </r>
       <r>    7.4770    0.0000 </r>
       <r>    9.5567    0.0000 </r>
       <r>    9.8156    0.0000 </r>
       <r>   12.9663    0.0000 </r>
      </set>
      <set comment="kpoint 37">
       <r>   -3.8991    1.0000 </r>
       <r>   -1.0547    1.0000 </r>
       <r>    2.4153    1.0000 </r>
       <r>    3.5010    1.0000 </r>
       <r>    7.2229    0.0000 </r>
       <r>    9.6138    0.0000 </r>
       <r>   10.1528    0.0000 </r>
       <r>   11.0953    0.0000 </r>
      </set>
      <set comment="kpoint 38">
       <r>   -4.7530    1.0000 </r>
       <r>    0.3954    1.0000 </r>
       <r>    3.0093    1.0000 </r>
       <r>    3.4802    1.0000 </r>
       <r>    7.1613    0.0000 </r>
       <r>    9.2772    0.0000 </r>
       <r>    9.9073    0.0000 </r>
       <r>   10.4990    0.0000 </r>
      </set>
      <set comment="kpoint 39">
       <r>   -5.2420    1.0000 </r>
       <r>    1.0949    1.0000 </r>
       <r>    3.8022    1.0000 </r>
       <r>    3.8841    1.0000 </r>
       <r>    7.5201    0.0000 </r>
       <r>    8.8044    0.0000 </r>
       <r>    9.7712    0.0000 </r>
       <r>   10.1727    0.0000 </r>
      </set>
      <set comment="kpoint 40">
       <r>   -4.6383    1.0000 </r>
       <r>    0.3252    1.0000 </r>
       <r>    2.3465    1.0000 </r>
       <r>    3.6936    1.0000 </r>
       <r>    8.0161    0.0000 </r>
       <r>    8.9884    0.0000 </r>
       <r>    9.5431    0.0000 </r>
       <r>   10.9826    0.0000 </r>
      </set>
      <set comment="kpoint 41">
       <r>   -3.7823    1.0000 </r>
       <r>   -0.7492    1.0000 </r>
       <r>    1.5898    1.0000 </r>
       <r>    3.1519    1.0000 </r>
       <r>    8.4579    0.0000 </r>
       <r>    8.9353    0.0000 </r>
       <r>   10.1781    0.0000 </r>
       <r>   12.0504    0.0000 </r>
      </set>
      <set comment="kpoint 42">
       <r>   -3.3175    1.0000 </r>
       <r>   -1.3344    1.0000 </r>
       <r>    1.5869    1.0000 </r>
       <r>    2.8535    1.0000 </r>
       <r>    8.0092    0.0000 </r>
       <r>    9.2536    0.0000 </r>
       <r>   10.9408    0.0000 </r>
       <r>   12.1626    0.0000 </r>
      </set>
      <set comment="kpoint 43">
       <r>   -4.0541    1.0000 </r>
       <r>   -0.3747    1.0000 </r>
       <r>    1.9986    1.0000 </r>
       <r>    3.0242    1.0000 </r>
       <r>    7.7461    0.0000 </r>
       <r>    8.9446    0.0000 </r>
       <r>    9.7442    0.0000 </r>
       <r>   12.1662    0.0000 </r>
      </set>
      <set comment="kpoint 44">
       <r>   -4.1591    1.0000 </r>
       <r>   -0.3136    1.0000 </r>
       <r>    2.3154    1.0000 </r>
       <r>    3.1607    1.0000 </r>
       <r>    6.8015    0.0000 </r>
       <r>    8.7801    0.0000 </r>
       <r>   10.9224    0.0000 </r>
       <r>   11.3017    0.0000 </r>
      </set>
      <set comment="kpoint 45">
       <r>   -3.3852    1.0000 </r>
       <r>   -1.1009    1.0000 </r>
       <r>    1.7687    1.0000 </r>
       <r>    2.5107    1.0000 </r>
       <r>    7.5527    0.0000 </r>
       <r>    8.5462    0.0000 </r>
       <r>   10.6176    0.0000 </r>
       <r>   13.3285    0.0000 </r>
      </set>
      <set comment="kpoint 46">
       <r>   -2.6105    1.0000 </r>
       <r>   -1.8351    1.0000 </r>
       <r>    1.4687    1.0000 </r>
       <r>    2.0319    1.0000 </r>
       <r>    8.6487    0.0000 </r>
       <r>    9.5699    0.0000 </r>
       <r>   10.1707    0.0000 </r>
       <r>   11.1656    0.0000 </r>
      </set>
      <set comment="kpoint 47">
       <r>   -3.1912    1.0000 </r>
       <r>   -1.2982    1.0000 </r>
       <r>    1.4561    1.0000 </r>
       <r>    2.4875    1.0000 </r>
       <r>    8.7443    0.0000 </r>
       <r>    9.1493    0.0000 </r>
       <r>    9.8739    0.0000 </r>
       <r>   12.3009    0.0000 </r>
      </set>
      <set comment="kpoint 48">
       <r>   -2.7651    1.0000 </r>
       <r>   -1.8099    1.0000 </r>
       <r>    1.5679    1.0000 </r>
       <r>    2.8297    1.0000 </r>
       <r>    6.3895    0.0000 </r>
       <r>    8.2333    0.0000 </r>
       <r>   13.0593    0.0000 </r>
       <r>   13.2152    0.0000 </r>
      </set>
      <set comment="kpoint 49">
       <r>   -2.6679    1.0000 </r>
       <r>   -1.8434    1.0000 </r>
       <r>    1.6579    1.0000 </r>
       <r>    2.2345    1.0000 </r>
       <r>    7.4539    0.0000 </r>
       <r>    8.3455    0.0000 </r>
       <r>   11.5982    0.0000 </r>
       <r>   12.6805    0.0000 </r>
      </set>
      <set comment="kpoint 50">
       <r>   -3.4786    1.0000 </r>
       <r>   -1.0605    1.0000 </r>
       <r>    1.8197    1.0000 </r>
       <r>    2.9412    1.0000 </r>
       <r>    6.5318    0.0000 </r>
       <r>    8.4147    0.0000 </r>
       <r>   12.0527    0.0000 </r>
       <r>   12.1810    0.0000 </r>
      </set>
      <set comment="kpoint 51">
       <r>   -5.1395    1.0000 </r>
       <r>    0.4333    1.0000 </r>
       <r>    4.3876    1.0000 </r>
       <r>    4.3876    1.0000 </r>
       <r>    6.9294    0.0000 </r>
       <r>    8.8025    0.0000 </r>
       <r>    8.8025    0.0000 </r>
       <r>   12.7224    0.0000 </r>
      </set>
      <set comment="kpoint 52">
       <r>   -4.6780    1.0000 </r>
       <r>   -0.1350    1.0000 </r>
       <r>    2.9666    1.0000 </r>
       <r>    4.3016    1.0000 </r>
       <r>    7.6646    0.0000 </r>
       <r>    9.0148    0.0000 </r>
       <r>    9.0677    0.0000 </r>
       <r>   12.1428    0.0000 </r>
      </set>
      <set comment="kpoint 53">
       <r>   -3.9161    1.0000 </r>
       <r>   -0.6794    1.0000 </r>
       <r>    1.5121    1.0000 </r>
       <r>    3.7447    1.0000 </r>
       <r>    7.4172    0.0000 </r>
       <r>   10.4101    0.0000 </r>
       <r>   10.5532    0.0000 </r>
       <r>   11.8814    0.0000 </r>
      </set>
      <set comment="kpoint 54">
       <r>   -3.1287    1.0000 </r>
       <r>   -1.4447    1.0000 </r>
       <r>    1.1945    1.0000 </r>
       <r>    3.2189    1.0000 </r>
       <r>    6.8360    0.0000 </r>
       <r>   10.6387    0.0000 </r>
       <r>   11.6450    0.0000 </r>
       <r>   11.8456    0.0000 </r>
      </set>
      <set comment="kpoint 55">
       <r>   -4.3771    1.0000 </r>
       <r>   -0.6719    1.0000 </r>
       <r>    3.2820    1.0000 </r>
       <r>    3.7620    1.0000 </r>
       <r>    7.4222    0.0000 </r>
       <r>    8.7676    0.0000 </r>
       <r>    9.5421    0.0000 </r>
       <r>   11.5225    0.0000 </r>
      </set>
      <set comment="kpoint 56">
       <r>   -3.7818    1.0000 </r>
       <r>   -1.0366    1.0000 </r>
       <r>    2.0293    1.0000 </r>
       <r>    3.3096    1.0000 </r>
       <r>    8.1955    0.0000 </r>
       <r>    8.5701    0.0000 </r>
       <r>   10.9939    0.0000 </r>
       <r>   11.2866    0.0000 </r>
      </set>
      <set comment="kpoint 57">
       <r>   -2.9946    1.0000 </r>
       <r>   -1.5140    1.0000 </r>
       <r>    1.2834    1.0000 </r>
       <r>    2.6263    1.0000 </r>
       <r>    7.8878    0.0000 </r>
       <r>   10.0831    0.0000 </r>
       <r>   10.8276    0.0000 </r>
       <r>   11.3286    0.0000 </r>
      </set>
      <set comment="kpoint 58">
       <r>   -3.4384    1.0000 </r>
       <r>   -1.3136    1.0000 </r>
       <r>    1.6598    1.0000 </r>
       <r>    3.3151    1.0000 </r>
       <r>    6.9762    0.0000 </r>
       <r>   10.5947    0.0000 </r>
       <r>   10.8918    0.0000 </r>
       <r>   10.8996    0.0000 </r>
      </set>
      <set comment="kpoint 59">
       <r>   -4.2895    1.0000 </r>
       <r>   -1.1509    1.0000 </r>
       <r>    4.1718    1.0000 </r>
       <r>    4.1718    1.0000 </r>
       <r>    6.6776    0.0000 </r>
       <r>    8.6846    0.0000 </r>
       <r>    8.6846    0.0000 </r>
       <r>   12.9860    0.0000 </r>
      </set>
      <set comment="kpoint 60">
       <r>   -3.9539    1.0000 </r>
       <r>   -1.3254    1.0000 </r>
       <r>    2.9785    1.0000 </r>
       <r>    3.9156    1.0000 </r>
       <r>    7.4319    0.0000 </r>
       <r>    8.7825    0.0000 </r>
       <r>    9.2441    0.0000 </r>
       <r>   13.3062    0.0000 </r>
      </set>
     </set>
    </set>
   </array>
  </eigenvalues>
  <separator name="orbital magnetization" >
   <v name="MAGDIPOLOUT">      0.00000000      0.00000000      0.00000000</v>
  </separator>
  <dos>
   <i name="efermi">      5.64634554 </i>
   <total>
    <array>
     <dimension dim="1">gridpoints</dimension>
     <dimension dim="2">spin</dimension>
     <field>energy</field>
     <field>total</field>
     <field>integrated</field>
     <set>
      <set comment="spin 1">
       <r>    -8.2539     0.0000     0.0000 </r>
       <r>    -8.1715     0.0000     0.0000 </r>
       <r>    -8.0891     0.0000     0.0000 </r>
       <r>    -8.0068     0.0000     0.0000 </r>
       <r>    -7.9244     0.0000     0.0000 </r>
       <r>    -7.8421     0.0000     0.0000 </r>
       <r>    -7.7597     0.0000     0.0000 </r>
       <r>    -7.6773     0.0000     0.0000 </r>
       <r>    -7.5950     0.0000     0.0000 </r>
       <r>    -7.5126     0.0000     0.0000 </r>
       <r>    -7.4303     0.0000     0.0000 </r>
       <r>    -7.3479     0.0000     0.0000 </r>
       <r>    -7.2655     0.0000     0.0000 </r>
       <r>    -7.1832     0.0000     0.0000 </r>
       <r>    -7.1008     0.0000     0.0000 </r>
       <r>    -7.0185     0.0000     0.0000 </r>
       <r>    -6.9361     0.0000     0.0000 </r>
       <r>    -6.8537     0.0000     0.0000 </r>
       <r>    -6.7714     0.0000     0.0000 </r>
       <r>    -6.6890     0.0001     0.0000 </r>
       <r>    -6.6067     0.0006     0.0001 </r>
       <r>    -6.5243     0.0026     0.0003 </r>
       <r>    -6.4419     0.0091     0.0010 </r>
       <r>    -6.3596     0.0242     0.0030 </r>
       <r>    -6.2772     0.0514     0.0073 </r>
       <r>    -6.1949     0.0889     0.0146 </r>
       <r>    -6.1125     0.1298     0.0253 </r>
       <r>    -6.0301     0.1677     0.0391 </r>
       <r>    -5.9478     0.2022     0.0557 </r>
       <r>    -5.8654     0.2354     0.0751 </r>
       <r>    -5.7831     0.2642     0.0969 </r>
       <r>    -5.7007     0.2825     0.1201 </r>
       <r>    -5.6183     0.2958     0.1445 </r>
       <r>    -5.5360     0.3198     0.1708 </r>
       <r>    -5.4536     0.3574     0.2003 </r>
       <r>    -5.3713     0.3887     0.2323 </r>
       <r>    -5.2889     0.3971     0.2650 </r>
       <r>    -5.2065     0.3954     0.2976 </r>
       <r>    -5.1242     0.4080     0.3312 </r>
       <r>    -5.0418     0.4381     0.3673 </r>
       <r>    -4.9595     0.4733     0.4062 </r>
       <r>    -4.8771     0.5074     0.4480 </r>
       <r>    -4.7947     0.5394     0.4925 </r>
       <r>    -4.7124     0.5602     0.5386 </r>
       <r>    -4.6300     0.5606     0.5848 </r>
       <r>    -4.5477     0.5489     0.6300 </r>
       <r>    -4.4653     0.5574     0.6759 </r>
       <r>    -4.3829     0.6192     0.7269 </r>
       <r>    -4.3006     0.7234     0.7865 </r>
       <r>    -4.2182     0.8132     0.8534 </r>
       <r>    -4.1359     0.8512     0.9235 </r>
       <r>    -4.0535     0.8554     0.9940 </r>
       <r>    -3.9711     0.8566     1.0645 </r>
       <r>    -3.8888     0.8515     1.1347 </r>
       <r>    -3.8064     0.8156     1.2018 </r>
       <r>    -3.7241     0.7538     1.2639 </r>
       <r>    -3.6417     0.7207     1.3233 </r>
       <r>    -3.5593     0.7614     1.3860 </r>
       <r>    -3.4770     0.8400     1.4552 </r>
       <r>    -3.3946     0.8649     1.5264 </r>
       <r>    -3.3123     0.7856     1.5911 </r>
       <r>    -3.2299     0.6379     1.6437 </r>
       <r>    -3.1475     0.4960     1.6845 </r>
       <r>    -3.0652     0.4082     1.7181 </r>
       <r>    -2.9828     0.3888     1.7501 </r>
       <r>    -2.9005     0.4349     1.7860 </r>
       <r>    -2.8181     0.5200     1.8288 </r>
       <r>    -2.7357     0.5841     1.8769 </r>
       <r>    -2.6534     0.5637     1.9233 </r>
       <r>    -2.5710     0.4453     1.9600 </r>
       <r>    -2.4887     0.2799     1.9831 </r>
       <r>    -2.4063     0.1369     1.9943 </r>
       <r>    -2.3239     0.0519     1.9986 </r>
       <r>    -2.2416     0.0197     2.0002 </r>
       <r>    -2.1592     0.0288     2.0026 </r>
       <r>    -2.0768     0.0901     2.0100 </r>
       <r>    -1.9945     0.2264     2.0287 </r>
       <r>    -1.9121     0.4192     2.0632 </r>
       <r>    -1.8298     0.5776     2.1108 </r>
       <r>    -1.7474     0.6115     2.1611 </r>
       <r>    -1.6650     0.5389     2.2055 </r>
       <r>    -1.5827     0.4755     2.2447 </r>
       <r>    -1.5003     0.5251     2.2879 </r>
       <r>    -1.4180     0.7062     2.3461 </r>
       <r>    -1.3356     0.9498     2.4243 </r>
       <r>    -1.2532     1.1511     2.5191 </r>
       <r>    -1.1709     1.2454     2.6217 </r>
       <r>    -1.0885     1.2237     2.7225 </r>
       <r>    -1.0062     1.0930     2.8125 </r>
       <r>    -0.9238     0.8947     2.8862 </r>
       <r>    -0.8414     0.7298     2.9463 </r>
       <r>    -0.7591     0.6686     3.0013 </r>
       <r>    -0.6767     0.6571     3.0555 </r>
       <r>    -0.5944     0.5919     3.1042 </r>
       <r>    -0.5120     0.4680     3.1427 </r>
       <r>    -0.4296     0.3772     3.1738 </r>
       <r>    -0.3473     0.3842     3.2055 </r>
       <r>    -0.2649     0.4690     3.2441 </r>
       <r>    -0.1826     0.5593     3.2901 </r>
       <r>    -0.1002     0.5777     3.3377 </r>
       <r>    -0.0178     0.4950     3.3785 </r>
       <r>     0.0645     0.3628     3.4084 </r>
       <r>     0.1469     0.2679     3.4304 </r>
       <r>     0.2292     0.2611     3.4519 </r>
       <r>     0.3116     0.3259     3.4788 </r>
       <r>     0.3940     0.3910     3.5110 </r>
       <r>     0.4763     0.3836     3.5426 </r>
       <r>     0.5587     0.2994     3.5672 </r>
       <r>     0.6410     0.2053     3.5841 </r>
       <r>     0.7234     0.1644     3.5977 </r>
       <r>     0.8058     0.1822     3.6127 </r>
       <r>     0.8881     0.2340     3.6320 </r>
       <r>     0.9705     0.3108     3.6576 </r>
       <r>     1.0528     0.4138     3.6916 </r>
       <r>     1.1352     0.5296     3.7353 </r>
       <r>     1.2176     0.6380     3.7878 </r>
       <r>     1.2999     0.7309     3.8480 </r>
       <r>     1.3823     0.8213     3.9157 </r>
       <r>     1.4646     0.9402     3.9931 </r>
       <r>     1.5470     1.0937     4.0832 </r>
       <r>     1.6294     1.2225     4.1839 </r>
       <r>     1.7117     1.2546     4.2872 </r>
       <r>     1.7941     1.1907     4.3853 </r>
       <r>     1.8764     1.1035     4.4761 </r>
       <r>     1.9588     1.0594     4.5634 </r>
       <r>     2.0412     1.0633     4.6510 </r>
       <r>     2.1235     1.0779     4.7397 </r>
       <r>     2.2059     1.0883     4.8294 </r>
       <r>     2.2882     1.1339     4.9228 </r>
       <r>     2.3706     1.2596     5.0265 </r>
       <r>     2.4530     1.4302     5.1443 </r>
       <r>     2.5353     1.5297     5.2703 </r>
       <r>     2.6177     1.4976     5.3936 </r>
       <r>     2.7000     1.4227     5.5108 </r>
       <r>     2.7824     1.4256     5.6282 </r>
       <r>     2.8648     1.4939     5.7512 </r>
       <r>     2.9471     1.5199     5.8764 </r>
       <r>     3.0295     1.4668     5.9972 </r>
       <r>     3.1118     1.4235     6.1145 </r>
       <r>     3.1942     1.4801     6.2364 </r>
       <r>     3.2766     1.5852     6.3669 </r>
       <r>     3.3589     1.5871     6.4976 </r>
       <r>     3.4413     1.4226     6.6148 </r>
       <r>     3.5236     1.2017     6.7138 </r>
       <r>     3.6060     1.0941     6.8039 </r>
       <r>     3.6884     1.1656     6.8999 </r>
       <r>     3.7707     1.3269     7.0092 </r>
       <r>     3.8531     1.4265     7.1267 </r>
       <r>     3.9354     1.3812     7.2404 </r>
       <r>     4.0178     1.2201     7.3409 </r>
       <r>     4.1002     1.0392     7.4265 </r>
       <r>     4.1825     0.9277     7.5029 </r>
       <r>     4.2649     0.8995     7.5770 </r>
       <r>     4.3473     0.8753     7.6491 </r>
       <r>     4.4296     0.7702     7.7125 </r>
       <r>     4.5120     0.6021     7.7621 </r>
       <r>     4.5943     0.4679     7.8006 </r>
       <r>     4.6767     0.4238     7.8355 </r>
       <r>     4.7591     0.4295     7.8709 </r>
       <r>     4.8414     0.4096     7.9046 </r>
       <r>     4.9238     0.3400     7.9326 </r>
       <r>     5.0061     0.2553     7.9537 </r>
       <r>     5.0885     0.1906     7.9694 </r>
       <r>     5.1709     0.1464     7.9814 </r>
       <r>     5.2532     0.1070     7.9902 </r>
       <r>     5.3356     0.0671     7.9958 </r>
       <r>     5.4179     0.0337     7.9985 </r>
       <r>     5.5003     0.0131     7.9996 </r>
       <r>     5.5827     0.0038     7.9999 </r>
       <r>     5.6650     0.0012     8.0000 </r>
       <r>     5.7474     0.0022     8.0002 </r>
       <r>     5.8297     0.0094     8.0010 </r>
       <r>     5.9121     0.0312     8.0035 </r>
       <r>     5.9945     0.0757     8.0098 </r>
       <r>     6.0768     0.1376     8.0211 </r>
       <r>     6.1592     0.1948     8.0372 </r>
       <r>     6.2415     0.2349     8.0565 </r>
       <r>     6.3239     0.2793     8.0795 </r>
       <r>     6.4063     0.3585     8.1090 </r>
       <r>     6.4886     0.4632     8.1472 </r>
       <r>     6.5710     0.5487     8.1924 </r>
       <r>     6.6533     0.5994     8.2417 </r>
       <r>     6.7357     0.6531     8.2955 </r>
       <r>     6.8181     0.7368     8.3562 </r>
       <r>     6.9004     0.8216     8.4239 </r>
       <r>     6.9828     0.8711     8.4956 </r>
       <r>     7.0651     0.8922     8.5691 </r>
       <r>     7.1475     0.9276     8.6455 </r>
       <r>     7.2299     1.0358     8.7308 </r>
       <r>     7.3122     1.2566     8.8343 </r>
       <r>     7.3946     1.5474     8.9617 </r>
       <r>     7.4769     1.7672     9.1073 </r>
       <r>     7.5593     1.7878     9.2545 </r>
       <r>     7.6417     1.6247     9.3883 </r>
       <r>     7.7240     1.4149     9.5049 </r>
       <r>     7.8064     1.2869     9.6109 </r>
       <r>     7.8887     1.2692     9.7154 </r>
       <r>     7.9711     1.2883     9.8215 </r>
       <r>     8.0535     1.2545     9.9248 </r>
       <r>     8.1358     1.1599    10.0204 </r>
       <r>     8.2182     1.0761    10.1090 </r>
       <r>     8.3005     1.0847    10.1983 </r>
       <r>     8.3829     1.2385    10.3003 </r>
       <r>     8.4653     1.5273    10.4261 </r>
       <r>     8.5476     1.8457    10.5781 </r>
       <r>     8.6300     2.0441    10.7465 </r>
       <r>     8.7123     2.0533    10.9156 </r>
       <r>     8.7947     1.9389    11.0753 </r>
       <r>     8.8771     1.8142    11.2247 </r>
       <r>     8.9594     1.7222    11.3665 </r>
       <r>     9.0418     1.6308    11.5008 </r>
       <r>     9.1241     1.5233    11.6263 </r>
       <r>     9.2065     1.4256    11.7437 </r>
       <r>     9.2889     1.3545    11.8553 </r>
       <r>     9.3712     1.3098    11.9632 </r>
       <r>     9.4536     1.2929    12.0696 </r>
       <r>     9.5359     1.2924    12.1761 </r>
       <r>     9.6183     1.2917    12.2825 </r>
       <r>     9.7007     1.2978    12.3894 </r>
       <r>     9.7830     1.3198    12.4981 </r>
       <r>     9.8654     1.3393    12.6084 </r>
       <r>     9.9477     1.3552    12.7200 </r>
       <r>    10.0301     1.4069    12.8358 </r>
       <r>    10.1125     1.4937    12.9589 </r>
       <r>    10.1948     1.5240    13.0844 </r>
       <r>    10.2772     1.4183    13.2012 </r>
       <r>    10.3595     1.2187    13.3016 </r>
       <r>    10.4419     1.0408    13.3873 </r>
       <r>    10.5243     0.9495    13.4655 </r>
       <r>    10.6066     0.9228    13.5415 </r>
       <r>    10.6890     0.9304    13.6181 </r>
       <r>    10.7714     1.0040    13.7008 </r>
       <r>    10.8537     1.1764    13.7977 </r>
       <r>    10.9361     1.3857    13.9118 </r>
       <r>    11.0184     1.5197    14.0370 </r>
       <r>    11.1008     1.5194    14.1621 </r>
       <r>    11.1832     1.3878    14.2764 </r>
       <r>    11.2655     1.1620    14.3721 </r>
       <r>    11.3479     0.9164    14.4476 </r>
       <r>    11.4302     0.7437    14.5088 </r>
       <r>    11.5126     0.6955    14.5661 </r>
       <r>    11.5950     0.7311    14.6263 </r>
       <r>    11.6773     0.7504    14.6882 </r>
       <r>    11.7597     0.7037    14.7461 </r>
       <r>    11.8420     0.6459    14.7993 </r>
       <r>    11.9244     0.6757    14.8550 </r>
       <r>    12.0068     0.8478    14.9248 </r>
       <r>    12.0891     1.1111    15.0163 </r>
       <r>    12.1715     1.3045    15.1237 </r>
       <r>    12.2538     1.2770    15.2289 </r>
       <r>    12.3362     1.0316    15.3139 </r>
       <r>    12.4186     0.7104    15.3724 </r>
       <r>    12.5009     0.4669    15.4108 </r>
       <r>    12.5833     0.3766    15.4418 </r>
       <r>    12.6656     0.4084    15.4755 </r>
       <r>    12.7480     0.4582    15.5132 </r>
       <r>    12.8304     0.4552    15.5507 </r>
       <r>    12.9127     0.4279    15.5859 </r>
       <r>    12.9951     0.4351    15.6218 </r>
       <r>    13.0774     0.4802    15.6613 </r>
       <r>    13.1598     0.5331    15.7052 </r>
       <r>    13.2422     0.5784    15.7529 </r>
       <r>    13.3245     0.5950    15.8019 </r>
       <r>    13.4069     0.5364    15.8460 </r>
       <r>    13.4892     0.3901    15.8782 </r>
       <r>    13.5716     0.2170    15.8960 </r>
       <r>    13.6540     0.0903    15.9035 </r>
       <r>    13.7363     0.0307    15.9060 </r>
       <r>    13.8187     0.0198    15.9076 </r>
       <r>    13.9010     0.0405    15.9110 </r>
       <r>    13.9834     0.0819    15.9177 </r>
       <r>    14.0658     0.1232    15.9279 </r>
       <r>    14.1481     0.1395    15.9394 </r>
       <r>    14.2305     0.1315    15.9502 </r>
       <r>    14.3128     0.1259    15.9606 </r>
       <r>    14.3952     0.1340    15.9716 </r>
       <r>    14.4776     0.1343    15.9827 </r>
       <r>    14.5599     0.1074    15.9915 </r>
       <r>    14.6423     0.0640    15.9968 </r>
       <r>    14.7246     0.0279    15.9991 </r>
       <r>    14.8070     0.0088    15.9998 </r>
       <r>    14.8894     0.0020    16.0000 </r>
       <r>    14.9717     0.0003    16.0000 </r>
       <r>    15.0541     0.0000    16.0000 </r>
       <r>    15.1364     0.0000    16.0000 </r>
       <r>    15.2188     0.0000    16.0000 </r>
       <r>    15.3012     0.0000    16.0000 </r>
       <r>    15.3835     0.0000    16.0000 </r>
       <r>    15.4659     0.0000    16.0000 </r>
       <r>    15.5482     0.0000    16.0000 </r>
       <r>    15.6306     0.0000    16.0000 </r>
       <r>    15.7130     0.0000    16.0000 </r>
       <r>    15.7953     0.0000    16.0000 </r>
       <r>    15.8777     0.0000    16.0000 </r>
       <r>    15.9600     0.0000    16.0000 </r>
       <r>    16.0424     0.0000    16.0000 </r>
       <r>    16.1248     0.0000    16.0000 </r>
       <r>    16.2071     0.0000    16.0000 </r>
       <r>    16.2895     0.0000    16.0000 </r>
       <r>    16.3718     0.0000    16.0000 </r>
       <r>    16.4542     0.0000    16.0000 </r>
      </set>
     </set>
    </array>
   </total>
  </dos>
 </calculation>
 <structure name="finalpos" >
  <crystal>
   <varray name="basis" >
    <v>       0.00000000       2.76444200       2.76444200 </v>
    <v>       2.76444200       0.00000000       2.76444200 </v>
    <v>       2.76444200       2.76444200       0.00000000 </v>
   </varray>
   <i name="volume">     42.25250320 </i>
   <varray name="rec_basis" >
    <v>      -0.18086833       0.18086833       0.18086833 </v>
    <v>       0.18086833      -0.18086833       0.18086833 </v>
    <v>       0.18086833       0.18086833      -0.18086833 </v>
   </varray>
  </crystal>
  <varray name="positions" >
   <v>       0.50000000       0.50000000       0.50000000 </v>
   <v>       0.75000000       0.75000000       0.75000000 </v>
  </varray>
 </structure>
</modeling>
